<?xml version="1.0" encoding="ISO-8859-1"?>
<modeling>
 <generator>
  <i name="program" type="string">vasp </i>
  <i name="version" type="string">6.4.1  </i>
  <i name="subversion" type="string">05Apr23 (build Mar 19 2024 11:44:59) complex                          parallel </i>
  <i name="platform" type="string">LinuxIFC </i>
  <i name="date" type="string">2024 03 28 </i>
  <i name="time" type="string">11:58:02 </i>
 </generator>
 <incar>
  <i type="string" name="PREC">Accurate</i>
  <i type="int" name="ISPIN">     1</i>
  <i type="int" name="NELM">   100</i>
  <i name="EDIFF">      0.00000100</i>
  <i name="EDIFFG">     -0.00100000</i>
  <i name="ENCUT">    550.00000000</i>
  <i type="int" name="NBANDS">   240</i>
  <i type="int" name="ISMEAR">     1</i>
  <i name="SIGMA">      0.10000000</i>
  <i type="int" name="LORBIT">    10</i>
  <i type="int" name="NUM_WANN">    36</i>
 </incar>
 <primitive_cell>
  <structure name="primitive_cell" >
   <crystal>
    <varray name="basis" >
     <v>       1.97200000      -1.97200000       0.00000000 </v>
     <v>       1.97200000       0.00000000       1.97200000 </v>
     <v>       0.00000000      -1.97200000       1.97200000 </v>
    </varray>
    <i name="volume">     15.33736416 </i>
    <varray name="rec_basis" >
     <v>       0.25354970      -0.25354970      -0.25354970 </v>
     <v>       0.25354970       0.25354970       0.25354970 </v>
     <v>      -0.25354970      -0.25354970       0.25354970 </v>
    </varray>
   </crystal>
   <varray name="positions" >
    <v>       0.00000000       0.00000000       0.00000000 </v>
   </varray>
  </structure>
  <varray name="primitive_index" >
   <v type="int" >        1 </v>
  </varray>
 </primitive_cell>
 <kpoints>
  <generation param="Gamma">
   <v type="int" name="divisions">       8        8        8 </v>
   <v name="usershift">      0.00000000       0.00000000       0.00000000 </v>
   <v name="genvec1">      0.12500000       0.00000000       0.00000000 </v>
   <v name="genvec2">      0.00000000       0.12500000       0.00000000 </v>
   <v name="genvec3">      0.00000000       0.00000000       0.12500000 </v>
   <v name="shift">      0.00000000       0.00000000       0.00000000 </v>
  </generation>
  <varray name="kpointlist" >
   <v>       0.00000000       0.00000000       0.00000000 </v>
   <v>       0.12500000       0.00000000       0.00000000 </v>
   <v>       0.25000000       0.00000000       0.00000000 </v>
   <v>       0.37500000       0.00000000       0.00000000 </v>
   <v>       0.50000000       0.00000000       0.00000000 </v>
   <v>       0.12500000       0.12500000       0.00000000 </v>
   <v>       0.25000000       0.12500000       0.00000000 </v>
   <v>       0.37500000       0.12500000       0.00000000 </v>
   <v>       0.50000000       0.12500000       0.00000000 </v>
   <v>       0.25000000       0.25000000       0.00000000 </v>
   <v>       0.37500000       0.25000000       0.00000000 </v>
   <v>       0.50000000       0.25000000       0.00000000 </v>
   <v>       0.37500000       0.37500000       0.00000000 </v>
   <v>       0.50000000       0.37500000       0.00000000 </v>
   <v>       0.50000000       0.50000000       0.00000000 </v>
   <v>       0.12500000       0.12500000       0.12500000 </v>
   <v>       0.25000000       0.12500000       0.12500000 </v>
   <v>       0.37500000       0.12500000       0.12500000 </v>
   <v>       0.50000000       0.12500000       0.12500000 </v>
   <v>       0.25000000       0.25000000       0.12500000 </v>
   <v>       0.37500000       0.25000000       0.12500000 </v>
   <v>       0.50000000       0.25000000       0.12500000 </v>
   <v>       0.37500000       0.37500000       0.12500000 </v>
   <v>       0.50000000       0.37500000       0.12500000 </v>
   <v>       0.50000000       0.50000000       0.12500000 </v>
   <v>       0.25000000       0.25000000       0.25000000 </v>
   <v>       0.37500000       0.25000000       0.25000000 </v>
   <v>       0.50000000       0.25000000       0.25000000 </v>
   <v>       0.37500000       0.37500000       0.25000000 </v>
   <v>       0.50000000       0.37500000       0.25000000 </v>
   <v>       0.50000000       0.50000000       0.25000000 </v>
   <v>       0.37500000       0.37500000       0.37500000 </v>
   <v>       0.50000000       0.37500000       0.37500000 </v>
   <v>       0.50000000       0.50000000       0.37500000 </v>
   <v>       0.50000000       0.50000000       0.50000000 </v>
  </varray>
  <varray name="weights" >
   <v>       0.00195312 </v>
   <v>       0.01171875 </v>
   <v>       0.01171875 </v>
   <v>       0.01171875 </v>
   <v>       0.00585938 </v>
   <v>       0.02343750 </v>
   <v>       0.04687500 </v>
   <v>       0.04687500 </v>
   <v>       0.02343750 </v>
   <v>       0.02343750 </v>
   <v>       0.04687500 </v>
   <v>       0.02343750 </v>
   <v>       0.02343750 </v>
   <v>       0.02343750 </v>
   <v>       0.00585938 </v>
   <v>       0.01562500 </v>
   <v>       0.04687500 </v>
   <v>       0.04687500 </v>
   <v>       0.02343750 </v>
   <v>       0.04687500 </v>
   <v>       0.09375000 </v>
   <v>       0.04687500 </v>
   <v>       0.04687500 </v>
   <v>       0.04687500 </v>
   <v>       0.01171875 </v>
   <v>       0.01562500 </v>
   <v>       0.04687500 </v>
   <v>       0.02343750 </v>
   <v>       0.04687500 </v>
   <v>       0.04687500 </v>
   <v>       0.01171875 </v>
   <v>       0.01562500 </v>
   <v>       0.02343750 </v>
   <v>       0.01171875 </v>
   <v>       0.00195312 </v>
  </varray>
 </kpoints>
 <parameters>
  <separator name="general" >
   <i type="string" name="SYSTEM">unknown system</i>
   <i type="logical" name="LCOMPAT"> F  </i>
  </separator>
  <separator name="electronic" >
   <i type="string" name="PREC">accura</i>
   <i name="ENMAX">    550.00000000</i>
   <i name="ENAUG">    358.96600000</i>
   <i name="EDIFF">      0.00000100</i>
   <i type="int" name="IALGO">    38</i>
   <i type="int" name="IWAVPR">    10</i>
   <i type="int" name="NBANDS">   240</i>
   <i type="int" name="NBANDSLOW">    -1</i>
   <i type="int" name="NBANDSHIGH">    -1</i>
   <i name="NELECT">     40.00000000</i>
   <i type="int" name="TURBO">     0</i>
   <i type="int" name="IRESTART">     0</i>
   <i type="int" name="NREBOOT">     0</i>
   <i type="int" name="NMIN">     0</i>
   <i name="EREF">      0.00000000</i>
   <separator name="electronic smearing" >
    <i type="int" name="ISMEAR">     1</i>
    <i name="SIGMA">      0.10000000</i>
    <i name="KSPACING">      0.50000000</i>
    <i type="logical" name="KGAMMA"> T  </i>
    <i type="logical" name="KBLOWUP"> T  </i>
   </separator>
   <separator name="electronic projectors" >
    <i type="logical" name="LREAL"> F  </i>
    <v name="ROPT">      0.00000000</v>
    <i type="int" name="LMAXPAW">  -100</i>
    <i type="int" name="LMAXMIX">     2</i>
    <i type="logical" name="NLSPLINE"> F  </i>
   </separator>
   <separator name="electronic startup" >
    <i type="int" name="ISTART">     1</i>
    <i type="int" name="ICHARG">     0</i>
    <i type="int" name="INIWAV">     1</i>
   </separator>
   <separator name="electronic spin" >
    <i type="int" name="ISPIN">     1</i>
    <i type="logical" name="LNONCOLLINEAR"> F  </i>
    <v name="MAGMOM">      1.00000000      1.00000000      1.00000000      1.00000000</v>
    <i name="NUPDOWN">     -1.00000000</i>
    <i type="logical" name="LSORBIT"> F  </i>
    <v name="SAXIS">      0.00000000      0.00000000      1.00000000</v>
    <i type="logical" name="LSPIRAL"> F  </i>
    <v name="QSPIRAL">      0.00000000      0.00000000      0.00000000</v>
    <i type="logical" name="LZEROZ"> F  </i>
   </separator>
   <separator name="electronic exchange-correlation" >
    <i type="logical" name="LASPH"> F  </i>
    <i type="logical" name="LMETAGGA"> F  </i>
   </separator>
   <separator name="electronic convergence" >
    <i type="int" name="NELM">   100</i>
    <i type="int" name="NELMDL">     0</i>
    <i type="int" name="NELMIN">     2</i>
    <i name="ENINI">    550.00000000</i>
    <separator name="electronic convergence detail" >
     <i type="logical" name="LDIAG"> T  </i>
     <i type="logical" name="LSUBROT"> F  </i>
     <i name="WEIMIN">      0.00000000</i>
     <i name="EBREAK">      0.00000000</i>
     <i name="DEPER">      0.30000000</i>
     <i type="int" name="NRMM">     4</i>
     <i name="TIME">      0.40000000</i>
    </separator>
   </separator>
   <separator name="electronic mixer" >
    <i name="AMIX">      0.40000000</i>
    <i name="BMIX">      1.00000000</i>
    <i name="AMIN">      0.10000000</i>
    <i name="AMIX_MAG">      1.60000000</i>
    <i name="BMIX_MAG">      1.00000000</i>
    <separator name="electronic mixer details" >
     <i type="int" name="IMIX">     4</i>
     <i type="logical" name="MIXFIRST"> F  </i>
     <i type="int" name="MAXMIX">   -45</i>
     <i name="WC">    100.00000000</i>
     <i type="int" name="INIMIX">     1</i>
     <i type="int" name="MIXPRE">     1</i>
     <i type="int" name="MREMOVE">     5</i>
    </separator>
   </separator>
   <separator name="electronic dipolcorrection" >
    <i type="logical" name="LDIPOL"> F  </i>
    <i type="logical" name="LMONO"> F  </i>
    <i type="int" name="IDIPOL">     0</i>
    <i name="EPSILON">      1.00000000</i>
    <v name="DIPOL">   -100.00000000   -100.00000000   -100.00000000</v>
    <i name="EFIELD">      0.00000000</i>
   </separator>
  </separator>
  <separator name="grids" >
   <i type="int" name="NGX">    30</i>
   <i type="int" name="NGY">    30</i>
   <i type="int" name="NGZ">    30</i>
   <i type="int" name="NGXF">    60</i>
   <i type="int" name="NGYF">    60</i>
   <i type="int" name="NGZF">    60</i>
   <i type="logical" name="ADDGRID"> F  </i>
  </separator>
  <separator name="ionic" >
   <i type="int" name="NSW">     0</i>
   <i type="int" name="IBRION">    -1</i>
   <i type="int" name="MDALGO">     0</i>
   <i type="int" name="ISIF">     2</i>
   <i name="PSTRESS">      0.00000000</i>
   <i name="EDIFFG">     -0.00100000</i>
   <i type="int" name="NFREE">     0</i>
   <i name="POTIM">      0.50000000</i>
   <i name="SMASS">     -3.00000000</i>
   <i name="SCALEE">      1.00000000</i>
  </separator>
  <separator name="ionic md" >
   <i name="TEBEG">      0.00010000</i>
   <i name="TEEND">      0.00010000</i>
   <i type="int" name="NBLOCK">     1</i>
   <i type="int" name="KBLOCK">     1</i>
   <i type="int" name="NPACO">   256</i>
   <i name="APACO">     10.00000000</i>
  </separator>
  <separator name="symmetry" >
   <i type="int" name="ISYM">     2</i>
   <i name="SYMPREC">      0.00001000</i>
  </separator>
  <separator name="dos" >
   <i type="int" name="LORBIT">    10</i>
   <v name="RWIGS">     -1.00000000</v>
   <i type="int" name="NEDOS">   301</i>
   <i name="EMIN">     10.00000000</i>
   <i name="EMAX">    -10.00000000</i>
   <i name="EFERMI">      0.00000000</i>
  </separator>
  <separator name="writing" >
   <i type="int" name="NWRITE">     2</i>
   <i type="logical" name="LWAVE"> T  </i>
   <i type="logical" name="LDOWNSAMPLE"> F  </i>
   <i type="logical" name="LCHARG"> T  </i>
   <i type="logical" name="LPARD"> F  </i>
   <i type="logical" name="LVTOT"> F  </i>
   <i type="logical" name="LVHAR"> F  </i>
   <i type="logical" name="LELF"> F  </i>
   <i type="logical" name="LOPTICS"> F  </i>
   <v name="STM">      0.00000000      0.00000000      0.00000000      0.00000000      0.00000000      0.00000000      0.00000000</v>
  </separator>
  <separator name="performance" >
   <i type="int" name="NPAR">    10</i>
   <i type="int" name="NSIM">     4</i>
   <i type="int" name="NBLK">    -1</i>
   <i type="logical" name="LPLANE"> T  </i>
   <i type="logical" name="LSCALAPACK"> T  </i>
   <i type="logical" name="LSCAAWARE"> T  </i>
   <i type="logical" name="LSCALU"> F  </i>
   <i type="logical" name="LASYNC"> F  </i>
   <i type="logical" name="LORBITALREAL"> F  </i>
  </separator>
  <separator name="miscellaneous" >
   <i type="int" name="IDIOT">     3</i>
   <i type="int" name="PHON_NSTRUCT">    -1</i>
   <i type="logical" name="LMUSIC"> F  </i>
   <v name="POMASS">    195.08000000</v>
   <v name="DARWINR">      0.00000000</v>
   <v name="DARWINV">      1.00000000</v>
   <i type="logical" name="LCORR"> T  </i>
  </separator>
  <i type="logical" name="GGA_COMPAT"> T  </i>
  <i type="logical" name="LBERRY"> F  </i>
  <i type="int" name="ICORELEVEL">     0</i>
  <i type="logical" name="LDAU"> F  </i>
  <i type="int" name="I_CONSTRAINED_M">     0</i>
  <separator name="electronic exchange-correlation" >
   <i type="string" name="GGA">--</i>
   <i type="int" name="VOSKOWN">     0</i>
   <i type="logical" name="LHFCALC"> F  </i>
   <i type="string" name="PRECFOCK"></i>
   <i type="logical" name="LSYMGRAD"> F  </i>
   <i type="logical" name="LHFONE"> F  </i>
   <i type="logical" name="LRHFCALC"> F  </i>
   <i type="logical" name="LTHOMAS"> F  </i>
   <i type="logical" name="LMODELHF"> F  </i>
   <i type="logical" name="LFOCKACE"> F  </i>
   <i name="ENCUT4O">     -1.00000000</i>
   <i type="int" name="EXXOEP">     0</i>
   <i type="int" name="FOURORBIT">     0</i>
   <i name="AEXX">      0.00000000</i>
   <i name="HFALPHA">      0.00000000</i>
   <i name="MCALPHA">      0.00000000</i>
   <i name="ALDAX">      1.00000000</i>
   <i name="AGGAX">      1.00000000</i>
   <i name="ALDAC">      1.00000000</i>
   <i name="AGGAC">      1.00000000</i>
   <i type="int" name="NKREDX">     1</i>
   <i type="int" name="NKREDY">     1</i>
   <i type="int" name="NKREDZ">     1</i>
   <i type="logical" name="SHIFTRED"> F  </i>
   <i type="logical" name="ODDONLY"> F  </i>
   <i type="logical" name="EVENONLY"> F  </i>
   <i type="int" name="LMAXFOCK">     0</i>
   <i type="int" name="NMAXFOCKAE">     0</i>
   <i type="logical" name="LFOCKAEDFT"> F  </i>
   <i name="HFSCREEN">      0.00000000</i>
   <i name="HFSCREENC">      0.00000000</i>
   <i type="int" name="NBANDSGWLOW">     0</i>
  </separator>
  <separator name="vdW DFT" >
   <i type="logical" name="LUSE_VDW"> F  </i>
   <i type="int" name="IVDW_NL">     1</i>
   <i type="logical" name="LSPIN_VDW"> F  </i>
   <i name="Zab_VDW">     -0.84910000</i>
   <i name="PARAM1">      0.12340000</i>
   <i name="PARAM2">      1.00000000</i>
   <i name="PARAM3">      0.00000000</i>
  </separator>
  <separator name="model GW" >
   <i type="int" name="MODEL_GW">     0</i>
   <i name="MODEL_EPS0">      9.20241850</i>
   <i name="MODEL_ALPHA">      1.00000000</i>
  </separator>
  <separator name="linear response parameters" >
   <i type="logical" name="LEPSILON"> F  </i>
   <i type="logical" name="LRPA"> F  </i>
   <i type="logical" name="LNABLA"> F  </i>
   <i type="logical" name="LVEL"> F  </i>
   <i name="CSHIFT">      0.10000000</i>
   <i name="OMEGAMAX">     -1.00000000</i>
   <i name="DEG_THRESHOLD">      0.00200000</i>
   <i name="RTIME">     -0.10000000</i>
   <i name="WPLASMAI">      0.00000000</i>
   <v name="DFIELD">      0.00000000      0.00000000      0.00000000</v>
   <v name="WPLASMA">      0.00000000      0.00000000      0.00000000      0.00000000      0.00000000      0.00000000      0.00000000      0.00000000      0.00000000</v>
  </separator>
  <separator name="orbital magnetization" >
   <i type="logical" name="NUCIND"> F  </i>
   <v name="MAGPOS">      0.00000000      0.00000000      0.00000000</v>
   <i type="logical" name="LNICSALL"> T  </i>
   <i type="logical" name="ORBITALMAG"> F  </i>
   <i type="logical" name="LMAGBLOCH"> F  </i>
   <i type="logical" name="LCHIMAG"> F  </i>
   <i type="logical" name="LGAUGE"> T  </i>
   <i type="int" name="MAGATOM">     0</i>
   <v name="MAGDIPOL">      0.00000000      0.00000000      0.00000000</v>
   <v name="AVECCONST">      0.00000000      0.00000000      0.00000000</v>
  </separator>
  <separator name="response functions" >
   <i type="logical" name="LALL_IN_ONE"> F  </i>
   <i type="int" name="IALL_IN_ONE">    -1</i>
   <i type="int" name="NBANDS_WAVE">    -1</i>
   <i type="logical" name="LFINITE_TEMPERATURE"> F  </i>
   <i type="logical" name="LADDER"> F  </i>
   <i type="logical" name="LRPAFORCE"> F  </i>
   <i type="logical" name="LFXC"> F  </i>
   <i type="logical" name="LHARTREE"> T  </i>
   <i type="int" name="IBSE">     0</i>
   <v type="int" name="KPOINT">    -1     0     0     0</v>
   <i type="logical" name="LTCTC"> F  </i>
   <i type="logical" name="LTCTE"> F  </i>
   <i type="logical" name="LTETE"> F  </i>
   <i type="logical" name="LTRIPLET"> F  </i>
   <i type="logical" name="LFXCEPS"> F  </i>
   <i type="logical" name="LFXHEG"> F  </i>
   <i type="int" name="NATURALO">     2</i>
   <i type="logical" name="LHOLEGF"> F  </i>
   <i type="logical" name="L2ORDER"> F  </i>
   <i type="logical" name="LDMP1"> F  </i>
   <i type="logical" name="LMP2LT"> F  </i>
   <i type="logical" name="LSMP2LT"> F  </i>
   <i type="logical" name="LGWLF"> F  </i>
   <i name="ENCUTGW">     -1.60000002</i>
   <i name="ENCUTGWSOFT">     -1.60000002</i>
   <i name="ENCUTLF">     -1.00000000</i>
   <i type="logical" name="LESF_SPLINES"> F  </i>
   <i type="int" name="LMAXMP2">    -1</i>
   <i name="SCISSOR">      0.00000000</i>
   <i type="int" name="NOMEGA">     0</i>
   <i type="int" name="NOMEGAR">     0</i>
   <i type="int" name="NBANDSGW">    -1</i>
   <i type="int" name="NBANDSO">    -1</i>
   <i type="int" name="NBANDSV">    -1</i>
   <i type="int" name="NELMGW">     1</i>
   <i type="int" name="NELMHF">     1</i>
   <i type="int" name="DIM">     3</i>
   <i type="int" name="IESPILON">     4</i>
   <i type="int" name="ANTIRES">     0</i>
   <i name="OMEGAMAX">    -30.00000000</i>
   <i name="OMEGAMIN">    -30.00000000</i>
   <i name="OMEGATL">   -200.00000000</i>
   <i type="int" name="OMEGAGRID">     0</i>
   <i name="CSHIFT">     -0.10000000</i>
   <i type="logical" name="LSELFENERGY"> F  </i>
   <i type="logical" name="LSPECTRAL"> F  </i>
   <i type="logical" name="LSPECTRALGW"> F  </i>
   <i type="logical" name="LSINGLES"> F  </i>
   <i type="logical" name="LFERMIGW"> F  </i>
   <i type="logical" name="ODDONLYGW"> F  </i>
   <i type="logical" name="EVENONLYGW"> F  </i>
   <i type="int" name="NKREDLFX">     1</i>
   <i type="int" name="NKREDLFY">     1</i>
   <i type="int" name="NKREDLFZ">     1</i>
   <i type="int" name="MAXMEM">  2800</i>
   <i type="int" name="TELESCOPE">     0</i>
   <i type="int" name="NTAUPAR">    -1</i>
   <i type="int" name="NOMEGAPAR">    -1</i>
   <i name="DAMP_NEWTON">      0.80000001</i>
   <i name="LAMBDA">      1.00000000</i>
  </separator>
  <separator name="External order field" >
   <i name="OFIELD_KAPPA">      0.00000000</i>
   <v name="OFIELD_K">      0.00000000      0.00000000      0.00000000</v>
   <i name="OFIELD_Q6_NEAR">      0.00000000</i>
   <i name="OFIELD_Q6_FAR">      0.00000000</i>
   <i name="OFIELD_A">      0.00000000</i>
  </separator>
  <separator name="optional k-points parameters" >
   <i type="int" name="KPOINTS_OPT_MODE">     1</i>
   <i type="logical" name="LKPOINTS_OPT"> F  </i>
  </separator>
 </parameters>
 <atominfo>
  <atoms>       4 </atoms>
  <types>       1 </types>
  <array name="atoms" >
   <dimension dim="1">ion</dimension>
   <field type="string">element</field>
   <field type="int">atomtype</field>
   <set>
    <rc><c>Pt</c><c>   1</c></rc>
    <rc><c>Pt</c><c>   1</c></rc>
    <rc><c>Pt</c><c>   1</c></rc>
    <rc><c>Pt</c><c>   1</c></rc>
   </set>
  </array>
  <array name="atomtypes" >
   <dimension dim="1">type</dimension>
   <field type="int">atomspertype</field>
   <field type="string">element</field>
   <field>mass</field>
   <field>valence</field>
   <field type="string">pseudopotential</field>
   <set>
    <rc><c>   4</c><c>Pt</c><c>    195.08000000</c><c>     10.00000000</c><c>  PAW Pt_new 15Nov2007                  </c></rc>
   </set>
  </array>
 </atominfo>
 <structure name="initialpos" >
  <crystal>
   <varray name="basis" >
    <v>       3.94400001       0.00000000       0.00000000 </v>
    <v>       0.00000000       3.94400001       0.00000000 </v>
    <v>       0.00000000       0.00000000       3.94400001 </v>
   </varray>
   <i name="volume">     61.34945665 </i>
   <varray name="rec_basis" >
    <v>       0.25354970       0.00000000       0.00000000 </v>
    <v>       0.00000000       0.25354970       0.00000000 </v>
    <v>       0.00000000       0.00000000       0.25354970 </v>
   </varray>
  </crystal>
  <varray name="positions" >
   <v>       0.00000000       0.00000000       0.00000000 </v>
   <v>       0.00000000       0.50000000       0.50000000 </v>
   <v>       0.50000000       0.00000000       0.50000000 </v>
   <v>       0.50000000       0.50000000       0.00000000 </v>
  </varray>
 </structure>
 <calculation>
  <scstep>
   <time name="dav">    2.04    2.07</time>
   <time name="total">    2.06    2.09</time>
   <energy>
    <i name="alphaZ">    239.80057075 </i>
    <i name="ewald">  -3347.92285303 </i>
    <i name="hartreedc">   -248.36996153 </i>
    <i name="XCdc">     15.30678955 </i>
    <i name="pawpsdc">   3667.96258571 </i>
    <i name="pawaedc">  -3575.79984653 </i>
    <i name="eentropy">     -0.00501126 </i>
    <i name="bandstr">    290.21799873 </i>
    <i name="atom">   2928.85744076 </i>
    <i name="e_fr_energy">    -29.95228685 </i>
    <i name="e_wo_entrp">    -29.94727559 </i>
    <i name="e_0_energy">    -29.95061643 </i>
   </energy>
  </scstep>
  <scstep>
   <time name="dav">    1.59    1.59</time>
   <time name="total">    1.60    1.60</time>
   <energy>
    <i name="alphaZ">    239.80057075 </i>
    <i name="ewald">  -3347.92285303 </i>
    <i name="hartreedc">   -248.36989593 </i>
    <i name="XCdc">     15.30678695 </i>
    <i name="pawpsdc">   3667.96217015 </i>
    <i name="pawaedc">  -3575.79947156 </i>
    <i name="eentropy">     -0.00501126 </i>
    <i name="bandstr">    290.21797630 </i>
    <i name="atom">   2928.85744076 </i>
    <i name="e_fr_energy">    -29.95228685 </i>
    <i name="e_wo_entrp">    -29.94727559 </i>
    <i name="e_0_energy">    -29.95061643 </i>
   </energy>
  </scstep>
  <structure>
   <crystal>
    <varray name="basis" >
     <v>       3.94400001       0.00000000       0.00000000 </v>
     <v>       0.00000000       3.94400001       0.00000000 </v>
     <v>       0.00000000       0.00000000       3.94400001 </v>
    </varray>
    <i name="volume">     61.34945665 </i>
    <varray name="rec_basis" >
     <v>       0.25354970       0.00000000       0.00000000 </v>
     <v>       0.00000000       0.25354970       0.00000000 </v>
     <v>       0.00000000       0.00000000       0.25354970 </v>
    </varray>
   </crystal>
   <varray name="positions" >
    <v>       0.00000000       0.00000000       0.00000000 </v>
    <v>       0.00000000       0.50000000       0.50000000 </v>
    <v>       0.50000000       0.00000000       0.50000000 </v>
    <v>       0.50000000       0.50000000       0.00000000 </v>
   </varray>
  </structure>
  <varray name="forces" >
   <v>      -0.00000000      -0.00000000      -0.00000000 </v>
   <v>       0.00000000       0.00000000       0.00000000 </v>
   <v>       0.00000000      -0.00000000      -0.00000000 </v>
   <v>      -0.00000000       0.00000000       0.00000000 </v>
  </varray>
  <varray name="stress" >
   <v>    -102.04314030       0.00000000       0.00000000 </v>
   <v>      -0.00000000    -102.04314030      -0.00000000 </v>
   <v>       0.00000000      -0.00000000    -102.04314030 </v>
  </varray>
  <energy>
   <i name="e_fr_energy">    -29.95228685 </i>
   <i name="e_wo_entrp">    -29.94727559 </i>
   <i name="e_0_energy">    -29.95061643 </i>
  </energy>
  <time name="totalsc">    4.56    4.63</time>
  <eigenvalues>
   <array>
    <dimension dim="1">band</dimension>
    <dimension dim="2">kpoint</dimension>
    <dimension dim="3">spin</dimension>
    <field>eigene</field>
    <field>occ</field>
    <set>
     <set comment="spin 1">
      <set comment="kpoint 1">
       <r>    0.7550    1.0000 </r>
       <r>    3.9021    1.0000 </r>
       <r>    3.9021    1.0000 </r>
       <r>    3.9021    1.0000 </r>
       <r>    4.3283    1.0000 </r>
       <r>    4.3283    1.0000 </r>
       <r>    4.3283    1.0000 </r>
       <r>    7.0889    1.0000 </r>
       <r>    7.0889    1.0000 </r>
       <r>    7.0889    1.0000 </r>
       <r>    9.2272    1.0000 </r>
       <r>    9.2272    1.0000 </r>
       <r>   10.8316    0.2510 </r>
       <r>   10.8316    0.2510 </r>
       <r>   10.8316    0.2510 </r>
       <r>   11.2745   -0.0000 </r>
       <r>   11.2745   -0.0000 </r>
       <r>   11.2745   -0.0000 </r>
       <r>   11.2745   -0.0000 </r>
       <r>   11.2745   -0.0000 </r>
       <r>   11.2745   -0.0000 </r>
       <r>   12.6058   -0.0000 </r>
       <r>   12.6058   -0.0000 </r>
       <r>   12.6058   -0.0000 </r>
       <r>   19.4899    0.0000 </r>
       <r>   19.4899    0.0000 </r>
       <r>   19.4899    0.0000 </r>
       <r>   22.0953    0.0000 </r>
       <r>   22.0953    0.0000 </r>
       <r>   22.0953    0.0000 </r>
       <r>   22.0953    0.0000 </r>
       <r>   22.0953    0.0000 </r>
       <r>   22.0953    0.0000 </r>
       <r>   25.4808    0.0000 </r>
       <r>   30.3110    0.0000 </r>
       <r>   30.3110    0.0000 </r>
       <r>   30.3110    0.0000 </r>
       <r>   30.8104    0.0000 </r>
       <r>   30.8104    0.0000 </r>
       <r>   30.8104    0.0000 </r>
       <r>   34.0462    0.0000 </r>
       <r>   34.0462    0.0000 </r>
       <r>   34.0462    0.0000 </r>
       <r>   35.7045    0.0000 </r>
       <r>   39.1846    0.0000 </r>
       <r>   39.1846    0.0000 </r>
       <r>   39.1846    0.0000 </r>
       <r>   42.6142    0.0000 </r>
       <r>   42.6142    0.0000 </r>
       <r>   42.6142    0.0000 </r>
       <r>   43.3177    0.0000 </r>
       <r>   43.3177    0.0000 </r>
       <r>   43.3177    0.0000 </r>
       <r>   44.2937    0.0000 </r>
       <r>   44.2937    0.0000 </r>
       <r>   44.2937    0.0000 </r>
       <r>   44.3556    0.0000 </r>
       <r>   44.3556    0.0000 </r>
       <r>   44.3556    0.0000 </r>
       <r>   44.3556    0.0000 </r>
       <r>   44.3556    0.0000 </r>
       <r>   44.3556    0.0000 </r>
       <r>   45.3965    0.0000 </r>
       <r>   45.3965    0.0000 </r>
       <r>   45.3965    0.0000 </r>
       <r>   46.4414    0.0000 </r>
       <r>   46.4414    0.0000 </r>
       <r>   46.4414    0.0000 </r>
       <r>   46.7158    0.0000 </r>
       <r>   46.7158    0.0000 </r>
       <r>   46.7158    0.0000 </r>
       <r>   46.7158    0.0000 </r>
       <r>   46.7158    0.0000 </r>
       <r>   46.7158    0.0000 </r>
       <r>   49.2473    0.0000 </r>
       <r>   49.2473    0.0000 </r>
       <r>   49.2473    0.0000 </r>
       <r>   49.8303    0.0000 </r>
       <r>   49.8303    0.0000 </r>
       <r>   49.8303    0.0000 </r>
       <r>   49.8303    0.0000 </r>
       <r>   49.8303    0.0000 </r>
       <r>   49.8303    0.0000 </r>
       <r>   51.7099    0.0000 </r>
       <r>   52.0704    0.0000 </r>
       <r>   52.0704    0.0000 </r>
       <r>   52.6480    0.0000 </r>
       <r>   52.6480    0.0000 </r>
       <r>   52.6480    0.0000 </r>
       <r>   55.9314    0.0000 </r>
       <r>   55.9314    0.0000 </r>
       <r>   55.9314    0.0000 </r>
       <r>   55.9314    0.0000 </r>
       <r>   55.9314    0.0000 </r>
       <r>   55.9314    0.0000 </r>
       <r>   57.4895    0.0000 </r>
       <r>   57.4895    0.0000 </r>
       <r>   57.4895    0.0000 </r>
       <r>   59.9504    0.0000 </r>
       <r>   59.9504    0.0000 </r>
       <r>   59.9504    0.0000 </r>
       <r>   60.2101    0.0000 </r>
       <r>   60.2101    0.0000 </r>
       <r>   60.2101    0.0000 </r>
       <r>   60.4553    0.0000 </r>
       <r>   66.6954    0.0000 </r>
       <r>   66.6954    0.0000 </r>
       <r>   66.6954    0.0000 </r>
       <r>   72.4577    0.0000 </r>
       <r>   72.4577    0.0000 </r>
       <r>   72.4577    0.0000 </r>
       <r>   72.4577    0.0000 </r>
       <r>   72.4577    0.0000 </r>
       <r>   72.4577    0.0000 </r>
       <r>   73.0210    0.0000 </r>
       <r>   73.0210    0.0000 </r>
       <r>   73.0210    0.0000 </r>
       <r>   75.3567    0.0000 </r>
       <r>   75.3567    0.0000 </r>
       <r>   75.3567    0.0000 </r>
       <r>   75.7576    0.0000 </r>
       <r>   75.7576    0.0000 </r>
       <r>   75.7576    0.0000 </r>
       <r>   76.5031    0.0000 </r>
       <r>   76.5031    0.0000 </r>
       <r>   76.5031    0.0000 </r>
       <r>   77.6604    0.0000 </r>
       <r>   77.6604    0.0000 </r>
       <r>   78.9204    0.0000 </r>
       <r>   78.9204    0.0000 </r>
       <r>   78.9204    0.0000 </r>
       <r>   78.9204    0.0000 </r>
       <r>   78.9204    0.0000 </r>
       <r>   78.9204    0.0000 </r>
       <r>   82.7441    0.0000 </r>
       <r>   82.7441    0.0000 </r>
       <r>   82.7441    0.0000 </r>
       <r>   84.4791    0.0000 </r>
       <r>   84.4791    0.0000 </r>
       <r>   84.4791    0.0000 </r>
       <r>   84.9686    0.0000 </r>
       <r>   85.6617    0.0000 </r>
       <r>   85.6617    0.0000 </r>
       <r>   85.6617    0.0000 </r>
       <r>   86.7031    0.0000 </r>
       <r>   86.7031    0.0000 </r>
       <r>   86.7031    0.0000 </r>
       <r>   89.2997    0.0000 </r>
       <r>   89.2997    0.0000 </r>
       <r>   89.2997    0.0000 </r>
       <r>   91.6206    0.0000 </r>
       <r>   91.6206    0.0000 </r>
       <r>   91.6206    0.0000 </r>
       <r>   91.6206    0.0000 </r>
       <r>   91.6206    0.0000 </r>
       <r>   91.6206    0.0000 </r>
       <r>   91.6848    0.0000 </r>
       <r>   91.6848    0.0000 </r>
       <r>   91.6848    0.0000 </r>
       <r>   91.6848    0.0000 </r>
       <r>   91.6848    0.0000 </r>
       <r>   91.6848    0.0000 </r>
       <r>   92.5621    0.0000 </r>
       <r>   92.5621    0.0000 </r>
       <r>   92.5621    0.0000 </r>
       <r>   93.0663    0.0000 </r>
       <r>   93.0663    0.0000 </r>
       <r>   93.0663    0.0000 </r>
       <r>   93.2142    0.0000 </r>
       <r>   95.4627    0.0000 </r>
       <r>   95.4627    0.0000 </r>
       <r>   95.4627    0.0000 </r>
       <r>   99.3440    0.0000 </r>
       <r>   99.3440    0.0000 </r>
       <r>   99.3440    0.0000 </r>
       <r>  100.9926    0.0000 </r>
       <r>  100.9926    0.0000 </r>
       <r>  100.9926    0.0000 </r>
       <r>  101.0575    0.0000 </r>
       <r>  101.0575    0.0000 </r>
       <r>  101.0575    0.0000 </r>
       <r>  101.2614    0.0000 </r>
       <r>  101.2614    0.0000 </r>
       <r>  101.2614    0.0000 </r>
       <r>  101.2614    0.0000 </r>
       <r>  101.2614    0.0000 </r>
       <r>  101.2614    0.0000 </r>
       <r>  101.6763    0.0000 </r>
       <r>  101.6763    0.0000 </r>
       <r>  102.6309    0.0000 </r>
       <r>  102.6309    0.0000 </r>
       <r>  102.6309    0.0000 </r>
       <r>  106.1959    0.0000 </r>
       <r>  106.5636    0.0000 </r>
       <r>  106.5636    0.0000 </r>
       <r>  106.5636    0.0000 </r>
       <r>  108.6453    0.0000 </r>
       <r>  108.6453    0.0000 </r>
       <r>  108.6453    0.0000 </r>
       <r>  110.1325    0.0000 </r>
       <r>  110.1325    0.0000 </r>
       <r>  110.1325    0.0000 </r>
       <r>  111.3342    0.0000 </r>
       <r>  118.2386    0.0000 </r>
       <r>  118.2386    0.0000 </r>
       <r>  118.2386    0.0000 </r>
       <r>  120.4379    0.0000 </r>
       <r>  120.4379    0.0000 </r>
       <r>  120.4379    0.0000 </r>
       <r>  120.4949    0.0000 </r>
       <r>  120.4949    0.0000 </r>
       <r>  120.4949    0.0000 </r>
       <r>  120.4949    0.0000 </r>
       <r>  120.4949    0.0000 </r>
       <r>  120.4949    0.0000 </r>
       <r>  121.2437    0.0000 </r>
       <r>  121.2437    0.0000 </r>
       <r>  121.2437    0.0000 </r>
       <r>  121.5615    0.0000 </r>
       <r>  121.5615    0.0000 </r>
       <r>  121.5615    0.0000 </r>
       <r>  122.7575    0.0000 </r>
       <r>  122.7575    0.0000 </r>
       <r>  122.7575    0.0000 </r>
       <r>  122.8509    0.0000 </r>
       <r>  122.8509    0.0000 </r>
       <r>  122.8509    0.0000 </r>
       <r>  122.8509    0.0000 </r>
       <r>  122.8510    0.0000 </r>
       <r>  122.8510    0.0000 </r>
       <r>  123.1210    0.0000 </r>
       <r>  123.1210    0.0000 </r>
       <r>  123.1210    0.0000 </r>
       <r>  123.1210    0.0000 </r>
       <r>  123.1211    0.0000 </r>
       <r>  123.1212    0.0000 </r>
       <r>  123.2631    0.0000 </r>
       <r>  123.2631    0.0000 </r>
       <r>  123.2636    0.0000 </r>
       <r>  124.8349    0.0000 </r>
      </set>
      <set comment="kpoint 2">
       <r>    0.9618    1.0000 </r>
       <r>    3.9776    1.0000 </r>
       <r>    4.0536    1.0000 </r>
       <r>    4.0536    1.0000 </r>
       <r>    4.4127    1.0000 </r>
       <r>    4.4573    1.0000 </r>
       <r>    4.4573    1.0000 </r>
       <r>    6.9540    1.0000 </r>
       <r>    7.1953    1.0000 </r>
       <r>    7.1953    1.0000 </r>
       <r>    9.0771    1.0000 </r>
       <r>    9.2817    1.0000 </r>
       <r>   10.1679    1.0000 </r>
       <r>   10.1679    1.0000 </r>
       <r>   10.6046    1.0091 </r>
       <r>   10.6046    1.0091 </r>
       <r>   10.7626    0.7974 </r>
       <r>   11.0069   -0.0065 </r>
       <r>   11.0069   -0.0065 </r>
       <r>   11.2750   -0.0000 </r>
       <r>   11.2750   -0.0000 </r>
       <r>   11.6085   -0.0000 </r>
       <r>   13.8236    0.0000 </r>
       <r>   13.8236    0.0000 </r>
       <r>   19.0754    0.0000 </r>
       <r>   19.0754    0.0000 </r>
       <r>   20.8096    0.0000 </r>
       <r>   21.9197    0.0000 </r>
       <r>   21.9197    0.0000 </r>
       <r>   22.3264    0.0000 </r>
       <r>   22.3264    0.0000 </r>
       <r>   22.5858    0.0000 </r>
       <r>   22.5858    0.0000 </r>
       <r>   25.8039    0.0000 </r>
       <r>   29.7441    0.0000 </r>
       <r>   30.3448    0.0000 </r>
       <r>   30.3448    0.0000 </r>
       <r>   30.5615    0.0000 </r>
       <r>   31.4969    0.0000 </r>
       <r>   31.4969    0.0000 </r>
       <r>   33.7131    0.0000 </r>
       <r>   33.9834    0.0000 </r>
       <r>   33.9834    0.0000 </r>
       <r>   36.9527    0.0000 </r>
       <r>   38.9198    0.0000 </r>
       <r>   38.9198    0.0000 </r>
       <r>   39.4920    0.0000 </r>
       <r>   40.5273    0.0000 </r>
       <r>   40.5273    0.0000 </r>
       <r>   42.3372    0.0000 </r>
       <r>   42.7142    0.0000 </r>
       <r>   43.9729    0.0000 </r>
       <r>   43.9729    0.0000 </r>
       <r>   44.1132    0.0000 </r>
       <r>   44.1132    0.0000 </r>
       <r>   44.1980    0.0000 </r>
       <r>   44.1980    0.0000 </r>
       <r>   44.3430    0.0000 </r>
       <r>   44.3430    0.0000 </r>
       <r>   44.3612    0.0000 </r>
       <r>   44.3719    0.0000 </r>
       <r>   44.3719    0.0000 </r>
       <r>   44.7233    0.0000 </r>
       <r>   44.7233    0.0000 </r>
       <r>   44.7258    0.0000 </r>
       <r>   44.7258    0.0000 </r>
       <r>   45.3204    0.0000 </r>
       <r>   45.8785    0.0000 </r>
       <r>   46.7689    0.0000 </r>
       <r>   46.7689    0.0000 </r>
       <r>   46.8672    0.0000 </r>
       <r>   46.8672    0.0000 </r>
       <r>   47.7671    0.0000 </r>
       <r>   47.7671    0.0000 </r>
       <r>   48.0452    0.0000 </r>
       <r>   48.0452    0.0000 </r>
       <r>   48.4068    0.0000 </r>
       <r>   50.9036    0.0000 </r>
       <r>   51.4284    0.0000 </r>
       <r>   51.4284    0.0000 </r>
       <r>   51.7058    0.0000 </r>
       <r>   51.7058    0.0000 </r>
       <r>   51.7693    0.0000 </r>
       <r>   52.3276    0.0000 </r>
       <r>   52.3276    0.0000 </r>
       <r>   52.3642    0.0000 </r>
       <r>   52.3642    0.0000 </r>
       <r>   52.6686    0.0000 </r>
       <r>   53.3141    0.0000 </r>
       <r>   54.2957    0.0000 </r>
       <r>   54.2957    0.0000 </r>
       <r>   54.4745    0.0000 </r>
       <r>   54.4745    0.0000 </r>
       <r>   55.7660    0.0000 </r>
       <r>   55.7660    0.0000 </r>
       <r>   58.8425    0.0000 </r>
       <r>   59.6205    0.0000 </r>
       <r>   59.9712    0.0000 </r>
       <r>   59.9712    0.0000 </r>
       <r>   60.4585    0.0000 </r>
       <r>   60.4585    0.0000 </r>
       <r>   61.1037    0.0000 </r>
       <r>   61.3825    0.0000 </r>
       <r>   62.1010    0.0000 </r>
       <r>   62.1010    0.0000 </r>
       <r>   65.4545    0.0000 </r>
       <r>   65.4545    0.0000 </r>
       <r>   66.7207    0.0000 </r>
       <r>   68.8212    0.0000 </r>
       <r>   69.1771    0.0000 </r>
       <r>   69.1771    0.0000 </r>
       <r>   69.8575    0.0000 </r>
       <r>   69.8575    0.0000 </r>
       <r>   72.5991    0.0000 </r>
       <r>   72.5991    0.0000 </r>
       <r>   73.2941    0.0000 </r>
       <r>   73.2941    0.0000 </r>
       <r>   74.6861    0.0000 </r>
       <r>   75.1995    0.0000 </r>
       <r>   75.7328    0.0000 </r>
       <r>   75.7328    0.0000 </r>
       <r>   76.8763    0.0000 </r>
       <r>   77.6070    0.0000 </r>
       <r>   77.6070    0.0000 </r>
       <r>   77.7869    0.0000 </r>
       <r>   78.9579    0.0000 </r>
       <r>   78.9579    0.0000 </r>
       <r>   78.9736    0.0000 </r>
       <r>   78.9736    0.0000 </r>
       <r>   79.0497    0.0000 </r>
       <r>   79.0497    0.0000 </r>
       <r>   79.2008    0.0000 </r>
       <r>   79.2008    0.0000 </r>
       <r>   81.0323    0.0000 </r>
       <r>   81.1511    0.0000 </r>
       <r>   81.8013    0.0000 </r>
       <r>   81.8013    0.0000 </r>
       <r>   82.1099    0.0000 </r>
       <r>   82.1099    0.0000 </r>
       <r>   84.9863    0.0000 </r>
       <r>   84.9863    0.0000 </r>
       <r>   85.2598    0.0000 </r>
       <r>   85.9362    0.0000 </r>
       <r>   85.9362    0.0000 </r>
       <r>   86.0140    0.0000 </r>
       <r>   86.8379    0.0000 </r>
       <r>   88.0849    0.0000 </r>
       <r>   88.4109    0.0000 </r>
       <r>   88.9813    0.0000 </r>
       <r>   88.9813    0.0000 </r>
       <r>   89.1820    0.0000 </r>
       <r>   89.1820    0.0000 </r>
       <r>   90.1184    0.0000 </r>
       <r>   90.1184    0.0000 </r>
       <r>   90.1266    0.0000 </r>
       <r>   90.1266    0.0000 </r>
       <r>   91.8120    0.0000 </r>
       <r>   91.8120    0.0000 </r>
       <r>   91.9177    0.0000 </r>
       <r>   91.9177    0.0000 </r>
       <r>   91.9664    0.0000 </r>
       <r>   91.9664    0.0000 </r>
       <r>   92.1074    0.0000 </r>
       <r>   93.3047    0.0000 </r>
       <r>   93.6795    0.0000 </r>
       <r>   93.6795    0.0000 </r>
       <r>   95.2173    0.0000 </r>
       <r>   95.7110    0.0000 </r>
       <r>   96.0434    0.0000 </r>
       <r>   96.2004    0.0000 </r>
       <r>   96.6080    0.0000 </r>
       <r>   96.6080    0.0000 </r>
       <r>   96.7507    0.0000 </r>
       <r>   96.7507    0.0000 </r>
       <r>   96.9744    0.0000 </r>
       <r>   98.3193    0.0000 </r>
       <r>   98.3193    0.0000 </r>
       <r>  101.3581    0.0000 </r>
       <r>  101.3581    0.0000 </r>
       <r>  101.7842    0.0000 </r>
       <r>  101.7842    0.0000 </r>
       <r>  101.7851    0.0000 </r>
       <r>  101.7851    0.0000 </r>
       <r>  102.4296    0.0000 </r>
       <r>  103.3240    0.0000 </r>
       <r>  103.4147    0.0000 </r>
       <r>  103.4147    0.0000 </r>
       <r>  104.3962    0.0000 </r>
       <r>  104.3962    0.0000 </r>
       <r>  104.7431    0.0000 </r>
       <r>  104.7431    0.0000 </r>
       <r>  105.1525    0.0000 </r>
       <r>  105.4351    0.0000 </r>
       <r>  105.4351    0.0000 </r>
       <r>  107.3090    0.0000 </r>
       <r>  107.7256    0.0000 </r>
       <r>  108.7886    0.0000 </r>
       <r>  108.7886    0.0000 </r>
       <r>  109.9264    0.0000 </r>
       <r>  112.1418    0.0000 </r>
       <r>  114.1467    0.0000 </r>
       <r>  114.1467    0.0000 </r>
       <r>  114.5532    0.0000 </r>
       <r>  115.0411    0.0000 </r>
       <r>  115.0411    0.0000 </r>
       <r>  115.0485    0.0000 </r>
       <r>  115.0485    0.0000 </r>
       <r>  115.8950    0.0000 </r>
       <r>  116.2690    0.0000 </r>
       <r>  116.2690    0.0000 </r>
       <r>  116.3109    0.0000 </r>
       <r>  116.3109    0.0000 </r>
       <r>  116.3562    0.0000 </r>
       <r>  116.3562    0.0000 </r>
       <r>  116.8920    0.0000 </r>
       <r>  117.4154    0.0000 </r>
       <r>  119.1529    0.0000 </r>
       <r>  119.1529    0.0000 </r>
       <r>  120.0611    0.0000 </r>
       <r>  120.0611    0.0000 </r>
       <r>  120.9729    0.0000 </r>
       <r>  120.9729    0.0000 </r>
       <r>  121.4551    0.0000 </r>
       <r>  121.4551    0.0000 </r>
       <r>  121.6033    0.0000 </r>
       <r>  121.6033    0.0000 </r>
       <r>  121.9929    0.0000 </r>
       <r>  124.3379    0.0000 </r>
       <r>  124.3379    0.0000 </r>
       <r>  124.6521    0.0000 </r>
       <r>  124.6521    0.0000 </r>
       <r>  124.7326    0.0000 </r>
       <r>  124.7326    0.0000 </r>
       <r>  125.4910    0.0000 </r>
       <r>  125.8560    0.0000 </r>
       <r>  125.8560    0.0000 </r>
       <r>  126.1697    0.0000 </r>
       <r>  127.5572    0.0000 </r>
       <r>  127.5723    0.0000 </r>
       <r>  127.8622    0.0000 </r>
      </set>
      <set comment="kpoint 3">
       <r>    1.5617    1.0000 </r>
       <r>    4.1349    1.0000 </r>
       <r>    4.4713    1.0000 </r>
       <r>    4.4713    1.0000 </r>
       <r>    4.6596    1.0000 </r>
       <r>    4.8423    1.0000 </r>
       <r>    4.8423    1.0000 </r>
       <r>    6.5883    1.0000 </r>
       <r>    7.5106    1.0000 </r>
       <r>    7.5106    1.0000 </r>
       <r>    8.6740    1.0000 </r>
       <r>    8.7336    1.0000 </r>
       <r>    8.7336    1.0000 </r>
       <r>    9.4391    1.0000 </r>
       <r>    9.8010    1.0000 </r>
       <r>    9.9899    1.0000 </r>
       <r>    9.9899    1.0000 </r>
       <r>   10.3382    1.0000 </r>
       <r>   10.3382    1.0000 </r>
       <r>   10.5701    1.0026 </r>
       <r>   11.2762   -0.0000 </r>
       <r>   11.2762   -0.0000 </r>
       <r>   15.5763    0.0000 </r>
       <r>   15.5763    0.0000 </r>
       <r>   18.3891    0.0000 </r>
       <r>   18.3891    0.0000 </r>
       <r>   21.3585    0.0000 </r>
       <r>   21.3585    0.0000 </r>
       <r>   22.6106    0.0000 </r>
       <r>   22.6106    0.0000 </r>
       <r>   23.6234    0.0000 </r>
       <r>   23.9069    0.0000 </r>
       <r>   23.9069    0.0000 </r>
       <r>   26.7192    0.0000 </r>
       <r>   28.9022    0.0000 </r>
       <r>   29.9925    0.0000 </r>
       <r>   30.2510    0.0000 </r>
       <r>   30.2510    0.0000 </r>
       <r>   32.7633    0.0000 </r>
       <r>   33.3611    0.0000 </r>
       <r>   33.3611    0.0000 </r>
       <r>   33.9705    0.0000 </r>
       <r>   33.9705    0.0000 </r>
       <r>   37.9557    0.0000 </r>
       <r>   37.9557    0.0000 </r>
       <r>   38.2871    0.0000 </r>
       <r>   38.2871    0.0000 </r>
       <r>   38.9072    0.0000 </r>
       <r>   40.0156    0.0000 </r>
       <r>   40.3959    0.0000 </r>
       <r>   41.7389    0.0000 </r>
       <r>   41.7389    0.0000 </r>
       <r>   43.0193    0.0000 </r>
       <r>   43.3451    0.0000 </r>
       <r>   43.3451    0.0000 </r>
       <r>   44.2612    0.0000 </r>
       <r>   44.2612    0.0000 </r>
       <r>   44.3098    0.0000 </r>
       <r>   44.3098    0.0000 </r>
       <r>   44.3947    0.0000 </r>
       <r>   44.3947    0.0000 </r>
       <r>   44.4098    0.0000 </r>
       <r>   44.4098    0.0000 </r>
       <r>   44.4258    0.0000 </r>
       <r>   44.5495    0.0000 </r>
       <r>   44.5495    0.0000 </r>
       <r>   44.7274    0.0000 </r>
       <r>   46.1705    0.0000 </r>
       <r>   46.1705    0.0000 </r>
       <r>   46.7744    0.0000 </r>
       <r>   46.7744    0.0000 </r>
       <r>   46.8436    0.0000 </r>
       <r>   46.9985    0.0000 </r>
       <r>   46.9985    0.0000 </r>
       <r>   47.1985    0.0000 </r>
       <r>   48.5490    0.0000 </r>
       <r>   50.0310    0.0000 </r>
       <r>   50.0310    0.0000 </r>
       <r>   51.5681    0.0000 </r>
       <r>   51.5681    0.0000 </r>
       <r>   51.7455    0.0000 </r>
       <r>   52.7429    0.0000 </r>
       <r>   53.5720    0.0000 </r>
       <r>   53.5720    0.0000 </r>
       <r>   53.6297    0.0000 </r>
       <r>   53.6297    0.0000 </r>
       <r>   53.6602    0.0000 </r>
       <r>   53.6602    0.0000 </r>
       <r>   54.5377    0.0000 </r>
       <r>   55.1174    0.0000 </r>
       <r>   55.1174    0.0000 </r>
       <r>   55.2953    0.0000 </r>
       <r>   55.2953    0.0000 </r>
       <r>   56.4693    0.0000 </r>
       <r>   56.4693    0.0000 </r>
       <r>   57.3893    0.0000 </r>
       <r>   61.8735    0.0000 </r>
       <r>   61.8735    0.0000 </r>
       <r>   61.8912    0.0000 </r>
       <r>   61.9893    0.0000 </r>
       <r>   61.9893    0.0000 </r>
       <r>   63.2957    0.0000 </r>
       <r>   63.5634    0.0000 </r>
       <r>   63.5634    0.0000 </r>
       <r>   64.2469    0.0000 </r>
       <r>   65.0997    0.0000 </r>
       <r>   65.0997    0.0000 </r>
       <r>   65.4326    0.0000 </r>
       <r>   65.7763    0.0000 </r>
       <r>   65.7763    0.0000 </r>
       <r>   66.1444    0.0000 </r>
       <r>   66.1444    0.0000 </r>
       <r>   66.7610    0.0000 </r>
       <r>   70.4934    0.0000 </r>
       <r>   72.8237    0.0000 </r>
       <r>   72.8237    0.0000 </r>
       <r>   73.6210    0.0000 </r>
       <r>   73.6210    0.0000 </r>
       <r>   74.2382    0.0000 </r>
       <r>   74.2382    0.0000 </r>
       <r>   75.1888    0.0000 </r>
       <r>   76.9020    0.0000 </r>
       <r>   76.9020    0.0000 </r>
       <r>   77.1191    0.0000 </r>
       <r>   77.1191    0.0000 </r>
       <r>   77.3106    0.0000 </r>
       <r>   78.0000    0.0000 </r>
       <r>   78.0433    0.0000 </r>
       <r>   78.0433    0.0000 </r>
       <r>   78.3643    0.0000 </r>
       <r>   78.8340    0.0000 </r>
       <r>   78.8340    0.0000 </r>
       <r>   80.7176    0.0000 </r>
       <r>   80.7176    0.0000 </r>
       <r>   81.5136    0.0000 </r>
       <r>   81.5136    0.0000 </r>
       <r>   82.0921    0.0000 </r>
       <r>   82.0921    0.0000 </r>
       <r>   82.9733    0.0000 </r>
       <r>   82.9733    0.0000 </r>
       <r>   85.2247    0.0000 </r>
       <r>   85.2652    0.0000 </r>
       <r>   85.2652    0.0000 </r>
       <r>   86.6084    0.0000 </r>
       <r>   86.6084    0.0000 </r>
       <r>   86.9425    0.0000 </r>
       <r>   87.2394    0.0000 </r>
       <r>   87.7887    0.0000 </r>
       <r>   88.2046    0.0000 </r>
       <r>   88.2046    0.0000 </r>
       <r>   88.4078    0.0000 </r>
       <r>   88.4078    0.0000 </r>
       <r>   89.8765    0.0000 </r>
       <r>   90.0641    0.0000 </r>
       <r>   91.0642    0.0000 </r>
       <r>   91.0645    0.0000 </r>
       <r>   91.7988    0.0000 </r>
       <r>   91.7988    0.0000 </r>
       <r>   91.8717    0.0000 </r>
       <r>   92.3698    0.0000 </r>
       <r>   92.3698    0.0000 </r>
       <r>   92.5536    0.0000 </r>
       <r>   92.5979    0.0000 </r>
       <r>   92.5979    0.0000 </r>
       <r>   92.6142    0.0000 </r>
       <r>   92.6142    0.0000 </r>
       <r>   94.0189    0.0000 </r>
       <r>   94.0415    0.0000 </r>
       <r>   94.0415    0.0000 </r>
       <r>   97.7128    0.0000 </r>
       <r>   97.8924    0.0000 </r>
       <r>   97.8924    0.0000 </r>
       <r>   98.8257    0.0000 </r>
       <r>   99.4094    0.0000 </r>
       <r>   99.4094    0.0000 </r>
       <r>  100.8949    0.0000 </r>
       <r>  100.8949    0.0000 </r>
       <r>  101.8772    0.0000 </r>
       <r>  101.8772    0.0000 </r>
       <r>  101.8938    0.0000 </r>
       <r>  101.8938    0.0000 </r>
       <r>  102.1917    0.0000 </r>
       <r>  102.5865    0.0000 </r>
       <r>  103.7731    0.0000 </r>
       <r>  103.7731    0.0000 </r>
       <r>  104.3680    0.0000 </r>
       <r>  105.5882    0.0000 </r>
       <r>  105.5882    0.0000 </r>
       <r>  107.5127    0.0000 </r>
       <r>  107.5127    0.0000 </r>
       <r>  108.7790    0.0000 </r>
       <r>  108.7790    0.0000 </r>
       <r>  109.0780    0.0000 </r>
       <r>  109.3623    0.0000 </r>
       <r>  109.3623    0.0000 </r>
       <r>  109.6541    0.0000 </r>
       <r>  109.6541    0.0000 </r>
       <r>  109.8462    0.0000 </r>
       <r>  109.9378    0.0000 </r>
       <r>  109.9378    0.0000 </r>
       <r>  110.1584    0.0000 </r>
       <r>  110.1584    0.0000 </r>
       <r>  110.3920    0.0000 </r>
       <r>  110.3920    0.0000 </r>
       <r>  111.8765    0.0000 </r>
       <r>  112.2376    0.0000 </r>
       <r>  112.9905    0.0000 </r>
       <r>  112.9905    0.0000 </r>
       <r>  113.8693    0.0000 </r>
       <r>  113.8693    0.0000 </r>
       <r>  113.8765    0.0000 </r>
       <r>  114.7940    0.0000 </r>
       <r>  114.7940    0.0000 </r>
       <r>  117.0428    0.0000 </r>
       <r>  117.7278    0.0000 </r>
       <r>  119.1409    0.0000 </r>
       <r>  119.1409    0.0000 </r>
       <r>  119.4525    0.0000 </r>
       <r>  119.4525    0.0000 </r>
       <r>  119.6188    0.0000 </r>
       <r>  119.9442    0.0000 </r>
       <r>  119.9442    0.0000 </r>
       <r>  120.1577    0.0000 </r>
       <r>  120.1577    0.0000 </r>
       <r>  120.9673    0.0000 </r>
       <r>  120.9673    0.0000 </r>
       <r>  121.8794    0.0000 </r>
       <r>  122.1624    0.0000 </r>
       <r>  126.5244    0.0000 </r>
       <r>  126.5244    0.0000 </r>
       <r>  126.6956    0.0000 </r>
       <r>  126.6956    0.0000 </r>
       <r>  126.7425    0.0000 </r>
       <r>  126.7425    0.0000 </r>
       <r>  127.7798    0.0000 </r>
       <r>  127.7798    0.0000 </r>
       <r>  128.9391    0.0000 </r>
       <r>  128.9391    0.0000 </r>
       <r>  129.9234    0.0000 </r>
       <r>  130.8862    0.0000 </r>
      </set>
      <set comment="kpoint 4">
       <r>    2.4755    1.0000 </r>
       <r>    4.1009    1.0000 </r>
       <r>    5.0070    1.0000 </r>
       <r>    5.0070    1.0000 </r>
       <r>    5.0489    1.0000 </r>
       <r>    5.4765    1.0000 </r>
       <r>    5.4765    1.0000 </r>
       <r>    6.0842    1.0000 </r>
       <r>    7.4429    1.0000 </r>
       <r>    7.4429    1.0000 </r>
       <r>    8.0232    1.0000 </r>
       <r>    8.0232    1.0000 </r>
       <r>    8.1704    1.0000 </r>
       <r>    8.3586    1.0000 </r>
       <r>    9.2409    1.0000 </r>
       <r>    9.2409    1.0000 </r>
       <r>    9.5122    1.0000 </r>
       <r>    9.5122    1.0000 </r>
       <r>    9.6818    1.0000 </r>
       <r>   10.2926    1.0000 </r>
       <r>   11.2774   -0.0000 </r>
       <r>   11.2774   -0.0000 </r>
       <r>   17.3442    0.0000 </r>
       <r>   17.3442    0.0000 </r>
       <r>   17.9247    0.0000 </r>
       <r>   17.9247    0.0000 </r>
       <r>   20.3678    0.0000 </r>
       <r>   20.3678    0.0000 </r>
       <r>   22.7288    0.0000 </r>
       <r>   22.7288    0.0000 </r>
       <r>   25.7517    0.0000 </r>
       <r>   25.7517    0.0000 </r>
       <r>   26.8073    0.0000 </r>
       <r>   28.0847    0.0000 </r>
       <r>   28.4298    0.0000 </r>
       <r>   29.4624    0.0000 </r>
       <r>   29.4624    0.0000 </r>
       <r>   29.5978    0.0000 </r>
       <r>   31.3495    0.0000 </r>
       <r>   34.3210    0.0000 </r>
       <r>   34.3210    0.0000 </r>
       <r>   35.1711    0.0000 </r>
       <r>   35.8860    0.0000 </r>
       <r>   35.8860    0.0000 </r>
       <r>   36.5134    0.0000 </r>
       <r>   36.5134    0.0000 </r>
       <r>   37.2464    0.0000 </r>
       <r>   37.2464    0.0000 </r>
       <r>   39.4176    0.0000 </r>
       <r>   39.4176    0.0000 </r>
       <r>   41.8450    0.0000 </r>
       <r>   43.3359    0.0000 </r>
       <r>   43.3359    0.0000 </r>
       <r>   43.3926    0.0000 </r>
       <r>   43.5469    0.0000 </r>
       <r>   43.6031    0.0000 </r>
       <r>   43.6031    0.0000 </r>
       <r>   44.3609    0.0000 </r>
       <r>   44.3609    0.0000 </r>
       <r>   44.3929    0.0000 </r>
       <r>   44.3929    0.0000 </r>
       <r>   44.3944    0.0000 </r>
       <r>   44.3944    0.0000 </r>
       <r>   44.4551    0.0000 </r>
       <r>   44.5532    0.0000 </r>
       <r>   44.5532    0.0000 </r>
       <r>   44.6705    0.0000 </r>
       <r>   44.7812    0.0000 </r>
       <r>   44.7812    0.0000 </r>
       <r>   45.4230    0.0000 </r>
       <r>   45.8692    0.0000 </r>
       <r>   45.8692    0.0000 </r>
       <r>   46.0507    0.0000 </r>
       <r>   46.3623    0.0000 </r>
       <r>   46.3623    0.0000 </r>
       <r>   48.5298    0.0000 </r>
       <r>   51.6622    0.0000 </r>
       <r>   51.9322    0.0000 </r>
       <r>   51.9322    0.0000 </r>
       <r>   52.3138    0.0000 </r>
       <r>   52.3138    0.0000 </r>
       <r>   52.6941    0.0000 </r>
       <r>   53.4421    0.0000 </r>
       <r>   53.4421    0.0000 </r>
       <r>   54.1177    0.0000 </r>
       <r>   54.4015    0.0000 </r>
       <r>   54.4015    0.0000 </r>
       <r>   54.6169    0.0000 </r>
       <r>   54.9510    0.0000 </r>
       <r>   54.9510    0.0000 </r>
       <r>   56.2548    0.0000 </r>
       <r>   56.2548    0.0000 </r>
       <r>   58.8350    0.0000 </r>
       <r>   58.8350    0.0000 </r>
       <r>   59.0528    0.0000 </r>
       <r>   59.0528    0.0000 </r>
       <r>   60.6514    0.0000 </r>
       <r>   60.6514    0.0000 </r>
       <r>   61.7824    0.0000 </r>
       <r>   61.7824    0.0000 </r>
       <r>   62.5911    0.0000 </r>
       <r>   62.5911    0.0000 </r>
       <r>   64.1910    0.0000 </r>
       <r>   64.1910    0.0000 </r>
       <r>   64.3873    0.0000 </r>
       <r>   65.1882    0.0000 </r>
       <r>   65.6053    0.0000 </r>
       <r>   66.6955    0.0000 </r>
       <r>   67.0535    0.0000 </r>
       <r>   67.1080    0.0000 </r>
       <r>   67.1080    0.0000 </r>
       <r>   68.1537    0.0000 </r>
       <r>   68.1537    0.0000 </r>
       <r>   68.3029    0.0000 </r>
       <r>   70.1140    0.0000 </r>
       <r>   70.1140    0.0000 </r>
       <r>   72.2715    0.0000 </r>
       <r>   72.2715    0.0000 </r>
       <r>   72.5156    0.0000 </r>
       <r>   72.5156    0.0000 </r>
       <r>   73.4831    0.0000 </r>
       <r>   73.6944    0.0000 </r>
       <r>   73.6944    0.0000 </r>
       <r>   74.5465    0.0000 </r>
       <r>   76.4417    0.0000 </r>
       <r>   76.4417    0.0000 </r>
       <r>   78.0444    0.0000 </r>
       <r>   78.0444    0.0000 </r>
       <r>   79.1340    0.0000 </r>
       <r>   79.1340    0.0000 </r>
       <r>   79.2500    0.0000 </r>
       <r>   79.2500    0.0000 </r>
       <r>   79.2793    0.0000 </r>
       <r>   79.2793    0.0000 </r>
       <r>   79.3616    0.0000 </r>
       <r>   79.3616    0.0000 </r>
       <r>   79.8600    0.0000 </r>
       <r>   79.8889    0.0000 </r>
       <r>   83.8941    0.0000 </r>
       <r>   83.8941    0.0000 </r>
       <r>   84.0390    0.0000 </r>
       <r>   85.7299    0.0000 </r>
       <r>   85.7299    0.0000 </r>
       <r>   86.0367    0.0000 </r>
       <r>   86.2364    0.0000 </r>
       <r>   86.3522    0.0000 </r>
       <r>   86.3522    0.0000 </r>
       <r>   86.4425    0.0000 </r>
       <r>   87.2519    0.0000 </r>
       <r>   87.2519    0.0000 </r>
       <r>   87.8984    0.0000 </r>
       <r>   88.6511    0.0000 </r>
       <r>   89.8823    0.0000 </r>
       <r>   90.5382    0.0000 </r>
       <r>   90.5382    0.0000 </r>
       <r>   91.6227    0.0000 </r>
       <r>   91.7515    0.0000 </r>
       <r>   91.7515    0.0000 </r>
       <r>   93.7655    0.0000 </r>
       <r>   93.7655    0.0000 </r>
       <r>   94.6959    0.0000 </r>
       <r>   94.6959    0.0000 </r>
       <r>   95.1945    0.0000 </r>
       <r>   95.7160    0.0000 </r>
       <r>   95.7160    0.0000 </r>
       <r>   95.9857    0.0000 </r>
       <r>   96.0838    0.0000 </r>
       <r>   96.0838    0.0000 </r>
       <r>   96.0894    0.0000 </r>
       <r>   98.4294    0.0000 </r>
       <r>   99.9527    0.0000 </r>
       <r>   99.9527    0.0000 </r>
       <r>  100.0681    0.0000 </r>
       <r>  100.0681    0.0000 </r>
       <r>  100.0785    0.0000 </r>
       <r>  100.2710    0.0000 </r>
       <r>  100.2710    0.0000 </r>
       <r>  100.3103    0.0000 </r>
       <r>  101.7960    0.0000 </r>
       <r>  101.7960    0.0000 </r>
       <r>  103.0673    0.0000 </r>
       <r>  103.0673    0.0000 </r>
       <r>  104.2700    0.0000 </r>
       <r>  104.2700    0.0000 </r>
       <r>  104.3330    0.0000 </r>
       <r>  104.3330    0.0000 </r>
       <r>  104.8517    0.0000 </r>
       <r>  104.8517    0.0000 </r>
       <r>  105.0215    0.0000 </r>
       <r>  105.0215    0.0000 </r>
       <r>  105.3321    0.0000 </r>
       <r>  105.4131    0.0000 </r>
       <r>  106.0446    0.0000 </r>
       <r>  106.0446    0.0000 </r>
       <r>  107.0414    0.0000 </r>
       <r>  107.6931    0.0000 </r>
       <r>  107.9414    0.0000 </r>
       <r>  108.0721    0.0000 </r>
       <r>  108.0721    0.0000 </r>
       <r>  110.4979    0.0000 </r>
       <r>  110.4979    0.0000 </r>
       <r>  112.9726    0.0000 </r>
       <r>  112.9726    0.0000 </r>
       <r>  113.3948    0.0000 </r>
       <r>  113.6594    0.0000 </r>
       <r>  113.6594    0.0000 </r>
       <r>  113.7943    0.0000 </r>
       <r>  115.2452    0.0000 </r>
       <r>  115.2452    0.0000 </r>
       <r>  116.5992    0.0000 </r>
       <r>  116.5992    0.0000 </r>
       <r>  117.4949    0.0000 </r>
       <r>  117.9698    0.0000 </r>
       <r>  117.9698    0.0000 </r>
       <r>  118.5207    0.0000 </r>
       <r>  118.5207    0.0000 </r>
       <r>  118.8416    0.0000 </r>
       <r>  118.8416    0.0000 </r>
       <r>  120.1481    0.0000 </r>
       <r>  120.2342    0.0000 </r>
       <r>  120.2342    0.0000 </r>
       <r>  120.4116    0.0000 </r>
       <r>  120.4116    0.0000 </r>
       <r>  122.4209    0.0000 </r>
       <r>  123.0333    0.0000 </r>
       <r>  123.2727    0.0000 </r>
       <r>  123.2727    0.0000 </r>
       <r>  125.4054    0.0000 </r>
       <r>  125.4054    0.0000 </r>
       <r>  125.9567    0.0000 </r>
       <r>  127.7837    0.0000 </r>
       <r>  127.7838    0.0000 </r>
       <r>  127.8857    0.0000 </r>
       <r>  127.8857    0.0000 </r>
       <r>  128.3968    0.0000 </r>
       <r>  128.3986    0.0000 </r>
       <r>  128.6449    0.0000 </r>
       <r>  129.0840    0.0000 </r>
       <r>  129.1211    0.0000 </r>
       <r>  129.5102    0.0000 </r>
      </set>
      <set comment="kpoint 5">
       <r>    3.4808    1.0000 </r>
       <r>    3.4808    1.0000 </r>
       <r>    5.2928    1.0000 </r>
       <r>    5.2928    1.0000 </r>
       <r>    5.5432    1.0000 </r>
       <r>    5.5432    1.0000 </r>
       <r>    6.3489    1.0000 </r>
       <r>    6.3489    1.0000 </r>
       <r>    6.3489    1.0000 </r>
       <r>    6.3489    1.0000 </r>
       <r>    7.8820    1.0000 </r>
       <r>    7.8820    1.0000 </r>
       <r>    8.7074    1.0000 </r>
       <r>    8.7074    1.0000 </r>
       <r>    8.7074    1.0000 </r>
       <r>    8.7074    1.0000 </r>
       <r>    8.8632    1.0000 </r>
       <r>    8.8632    1.0000 </r>
       <r>    9.9800    1.0000 </r>
       <r>    9.9800    1.0000 </r>
       <r>   11.2779   -0.0000 </r>
       <r>   11.2779   -0.0000 </r>
       <r>   17.7718    0.0000 </r>
       <r>   17.7718    0.0000 </r>
       <r>   18.9886    0.0000 </r>
       <r>   18.9886    0.0000 </r>
       <r>   18.9886    0.0000 </r>
       <r>   18.9886    0.0000 </r>
       <r>   22.7530    0.0000 </r>
       <r>   22.7530    0.0000 </r>
       <r>   27.7735    0.0000 </r>
       <r>   27.7735    0.0000 </r>
       <r>   27.7735    0.0000 </r>
       <r>   27.7735    0.0000 </r>
       <r>   28.2796    0.0000 </r>
       <r>   28.2796    0.0000 </r>
       <r>   29.7052    0.0000 </r>
       <r>   29.7052    0.0000 </r>
       <r>   31.4405    0.0000 </r>
       <r>   31.4405    0.0000 </r>
       <r>   35.1929    0.0000 </r>
       <r>   35.1929    0.0000 </r>
       <r>   35.1929    0.0000 </r>
       <r>   35.1929    0.0000 </r>
       <r>   37.6519    0.0000 </r>
       <r>   37.6519    0.0000 </r>
       <r>   37.7804    0.0000 </r>
       <r>   37.7804    0.0000 </r>
       <r>   37.7804    0.0000 </r>
       <r>   37.7804    0.0000 </r>
       <r>   41.6894    0.0000 </r>
       <r>   41.6894    0.0000 </r>
       <r>   43.7637    0.0000 </r>
       <r>   43.7637    0.0000 </r>
       <r>   44.2545    0.0000 </r>
       <r>   44.2545    0.0000 </r>
       <r>   44.2545    0.0000 </r>
       <r>   44.2545    0.0000 </r>
       <r>   44.3314    0.0000 </r>
       <r>   44.3314    0.0000 </r>
       <r>   44.3818    0.0000 </r>
       <r>   44.3818    0.0000 </r>
       <r>   44.3818    0.0000 </r>
       <r>   44.3818    0.0000 </r>
       <r>   44.4623    0.0000 </r>
       <r>   44.4623    0.0000 </r>
       <r>   44.6007    0.0000 </r>
       <r>   44.6007    0.0000 </r>
       <r>   44.8207    0.0000 </r>
       <r>   44.8207    0.0000 </r>
       <r>   44.8207    0.0000 </r>
       <r>   44.8207    0.0000 </r>
       <r>   46.1492    0.0000 </r>
       <r>   46.1492    0.0000 </r>
       <r>   47.2654    0.0000 </r>
       <r>   47.2654    0.0000 </r>
       <r>   51.5919    0.0000 </r>
       <r>   51.5919    0.0000 </r>
       <r>   53.1132    0.0000 </r>
       <r>   53.1132    0.0000 </r>
       <r>   53.3454    0.0000 </r>
       <r>   53.3454    0.0000 </r>
       <r>   53.3454    0.0000 </r>
       <r>   53.3454    0.0000 </r>
       <r>   53.7506    0.0000 </r>
       <r>   53.7506    0.0000 </r>
       <r>   53.9887    0.0000 </r>
       <r>   53.9887    0.0000 </r>
       <r>   57.0004    0.0000 </r>
       <r>   57.0004    0.0000 </r>
       <r>   57.5119    0.0000 </r>
       <r>   57.5119    0.0000 </r>
       <r>   57.5119    0.0000 </r>
       <r>   57.5119    0.0000 </r>
       <r>   58.7609    0.0000 </r>
       <r>   58.7609    0.0000 </r>
       <r>   59.7593    0.0000 </r>
       <r>   59.7593    0.0000 </r>
       <r>   64.3561    0.0000 </r>
       <r>   64.3561    0.0000 </r>
       <r>   64.3561    0.0000 </r>
       <r>   64.3561    0.0000 </r>
       <r>   64.5447    0.0000 </r>
       <r>   64.5447    0.0000 </r>
       <r>   64.5447    0.0000 </r>
       <r>   64.5447    0.0000 </r>
       <r>   64.9712    0.0000 </r>
       <r>   64.9712    0.0000 </r>
       <r>   66.2820    0.0000 </r>
       <r>   66.2820    0.0000 </r>
       <r>   69.1817    0.0000 </r>
       <r>   69.1817    0.0000 </r>
       <r>   69.5461    0.0000 </r>
       <r>   69.5461    0.0000 </r>
       <r>   70.6484    0.0000 </r>
       <r>   70.6484    0.0000 </r>
       <r>   70.6484    0.0000 </r>
       <r>   70.6484    0.0000 </r>
       <r>   71.7667    0.0000 </r>
       <r>   71.7667    0.0000 </r>
       <r>   71.7667    0.0000 </r>
       <r>   71.7667    0.0000 </r>
       <r>   72.2068    0.0000 </r>
       <r>   72.2068    0.0000 </r>
       <r>   75.7425    0.0000 </r>
       <r>   75.7425    0.0000 </r>
       <r>   77.9947    0.0000 </r>
       <r>   77.9947    0.0000 </r>
       <r>   77.9947    0.0000 </r>
       <r>   77.9947    0.0000 </r>
       <r>   78.1406    0.0000 </r>
       <r>   78.1406    0.0000 </r>
       <r>   78.1406    0.0000 </r>
       <r>   78.1406    0.0000 </r>
       <r>   81.5581    0.0000 </r>
       <r>   81.5581    0.0000 </r>
       <r>   82.5675    0.0000 </r>
       <r>   82.5675    0.0000 </r>
       <r>   82.5969    0.0000 </r>
       <r>   82.5969    0.0000 </r>
       <r>   84.0261    0.0000 </r>
       <r>   84.0261    0.0000 </r>
       <r>   84.1726    0.0000 </r>
       <r>   84.1726    0.0000 </r>
       <r>   84.6872    0.0000 </r>
       <r>   84.6872    0.0000 </r>
       <r>   84.6872    0.0000 </r>
       <r>   84.6872    0.0000 </r>
       <r>   86.6302    0.0000 </r>
       <r>   86.6302    0.0000 </r>
       <r>   88.7940    0.0000 </r>
       <r>   88.7940    0.0000 </r>
       <r>   90.5113    0.0000 </r>
       <r>   90.5113    0.0000 </r>
       <r>   94.2510    0.0000 </r>
       <r>   94.2510    0.0000 </r>
       <r>   95.2661    0.0000 </r>
       <r>   95.2661    0.0000 </r>
       <r>   95.2661    0.0000 </r>
       <r>   95.2661    0.0000 </r>
       <r>   95.7508    0.0000 </r>
       <r>   95.7508    0.0000 </r>
       <r>   95.7508    0.0000 </r>
       <r>   95.7508    0.0000 </r>
       <r>   96.6719    0.0000 </r>
       <r>   96.6719    0.0000 </r>
       <r>   97.6416    0.0000 </r>
       <r>   97.6416    0.0000 </r>
       <r>   98.7966    0.0000 </r>
       <r>   98.7966    0.0000 </r>
       <r>   99.7853    0.0000 </r>
       <r>   99.7853    0.0000 </r>
       <r>   99.7853    0.0000 </r>
       <r>   99.7853    0.0000 </r>
       <r>  100.1651    0.0000 </r>
       <r>  100.1651    0.0000 </r>
       <r>  100.1840    0.0000 </r>
       <r>  100.1840    0.0000 </r>
       <r>  101.2433    0.0000 </r>
       <r>  101.2433    0.0000 </r>
       <r>  102.2617    0.0000 </r>
       <r>  102.2617    0.0000 </r>
       <r>  102.2617    0.0000 </r>
       <r>  102.2617    0.0000 </r>
       <r>  102.6645    0.0000 </r>
       <r>  102.6645    0.0000 </r>
       <r>  102.6645    0.0000 </r>
       <r>  102.6645    0.0000 </r>
       <r>  103.6766    0.0000 </r>
       <r>  103.6766    0.0000 </r>
       <r>  105.4800    0.0000 </r>
       <r>  105.4800    0.0000 </r>
       <r>  105.5692    0.0000 </r>
       <r>  105.5692    0.0000 </r>
       <r>  106.6228    0.0000 </r>
       <r>  106.6228    0.0000 </r>
       <r>  106.6228    0.0000 </r>
       <r>  106.6228    0.0000 </r>
       <r>  110.2169    0.0000 </r>
       <r>  110.2169    0.0000 </r>
       <r>  112.7216    0.0000 </r>
       <r>  112.7216    0.0000 </r>
       <r>  113.0667    0.0000 </r>
       <r>  113.0667    0.0000 </r>
       <r>  115.2388    0.0000 </r>
       <r>  115.2388    0.0000 </r>
       <r>  117.3756    0.0000 </r>
       <r>  117.3756    0.0000 </r>
       <r>  117.8705    0.0000 </r>
       <r>  117.8705    0.0000 </r>
       <r>  117.8705    0.0000 </r>
       <r>  117.8705    0.0000 </r>
       <r>  118.3068    0.0000 </r>
       <r>  118.3068    0.0000 </r>
       <r>  119.9523    0.0000 </r>
       <r>  119.9523    0.0000 </r>
       <r>  119.9523    0.0000 </r>
       <r>  119.9523    0.0000 </r>
       <r>  120.7795    0.0000 </r>
       <r>  120.7795    0.0000 </r>
       <r>  120.7795    0.0000 </r>
       <r>  120.7795    0.0000 </r>
       <r>  123.3399    0.0000 </r>
       <r>  123.3399    0.0000 </r>
       <r>  124.1552    0.0000 </r>
       <r>  124.1552    0.0000 </r>
       <r>  124.1552    0.0000 </r>
       <r>  124.1552    0.0000 </r>
       <r>  125.8272    0.0000 </r>
       <r>  125.8272    0.0000 </r>
       <r>  125.8272    0.0000 </r>
       <r>  125.8272    0.0000 </r>
       <r>  126.6077    0.0000 </r>
       <r>  126.6077    0.0000 </r>
       <r>  126.6392    0.0000 </r>
       <r>  126.6392    0.0000 </r>
       <r>  128.1437    0.0000 </r>
       <r>  128.1437    0.0000 </r>
       <r>  129.4271    0.0000 </r>
       <r>  129.4376    0.0000 </r>
      </set>
      <set comment="kpoint 6">
       <r>    1.1630    1.0000 </r>
       <r>    4.1322    1.0000 </r>
       <r>    4.1322    1.0000 </r>
       <r>    4.1671    1.0000 </r>
       <r>    4.5381    1.0000 </r>
       <r>    4.5381    1.0000 </r>
       <r>    4.6100    1.0000 </r>
       <r>    6.8948    1.0000 </r>
       <r>    7.2355    1.0000 </r>
       <r>    7.2792    1.0000 </r>
       <r>    9.0395    1.0000 </r>
       <r>    9.2535    1.0000 </r>
       <r>    9.6675    1.0000 </r>
       <r>    9.7188    1.0000 </r>
       <r>    9.7188    1.0000 </r>
       <r>   10.4139    1.0000 </r>
       <r>   10.6031    1.0087 </r>
       <r>   10.6031    1.0087 </r>
       <r>   11.0061   -0.0067 </r>
       <r>   11.0061   -0.0067 </r>
       <r>   11.1053   -0.0001 </r>
       <r>   12.9258   -0.0000 </r>
       <r>   12.9258   -0.0000 </r>
       <r>   14.6095    0.0000 </r>
       <r>   18.5340    0.0000 </r>
       <r>   20.2508    0.0000 </r>
       <r>   20.2508    0.0000 </r>
       <r>   21.5906    0.0000 </r>
       <r>   22.4032    0.0000 </r>
       <r>   22.4032    0.0000 </r>
       <r>   22.9123    0.0000 </r>
       <r>   22.9123    0.0000 </r>
       <r>   23.0023    0.0000 </r>
       <r>   26.0963    0.0000 </r>
       <r>   28.7413    0.0000 </r>
       <r>   30.3640    0.0000 </r>
       <r>   31.1970    0.0000 </r>
       <r>   31.2770    0.0000 </r>
       <r>   31.2770    0.0000 </r>
       <r>   31.5984    0.0000 </r>
       <r>   33.6786    0.0000 </r>
       <r>   33.6786    0.0000 </r>
       <r>   34.3063    0.0000 </r>
       <r>   37.2897    0.0000 </r>
       <r>   38.7895    0.0000 </r>
       <r>   39.1242    0.0000 </r>
       <r>   39.1242    0.0000 </r>
       <r>   39.2894    0.0000 </r>
       <r>   39.9155    0.0000 </r>
       <r>   42.0750    0.0000 </r>
       <r>   42.4927    0.0000 </r>
       <r>   42.9088    0.0000 </r>
       <r>   43.7679    0.0000 </r>
       <r>   43.7679    0.0000 </r>
       <r>   44.1914    0.0000 </r>
       <r>   44.2826    0.0000 </r>
       <r>   44.2826    0.0000 </r>
       <r>   44.3088    0.0000 </r>
       <r>   44.3536    0.0000 </r>
       <r>   44.3536    0.0000 </r>
       <r>   44.3568    0.0000 </r>
       <r>   44.3680    0.0000 </r>
       <r>   44.5183    0.0000 </r>
       <r>   44.5680    0.0000 </r>
       <r>   44.5680    0.0000 </r>
       <r>   44.6598    0.0000 </r>
       <r>   44.6598    0.0000 </r>
       <r>   45.4385    0.0000 </r>
       <r>   46.4342    0.0000 </r>
       <r>   46.4342    0.0000 </r>
       <r>   46.8599    0.0000 </r>
       <r>   46.8653    0.0000 </r>
       <r>   47.1823    0.0000 </r>
       <r>   48.2779    0.0000 </r>
       <r>   48.2779    0.0000 </r>
       <r>   48.9191    0.0000 </r>
       <r>   49.0405    0.0000 </r>
       <r>   50.8230    0.0000 </r>
       <r>   51.2108    0.0000 </r>
       <r>   51.2908    0.0000 </r>
       <r>   51.9951    0.0000 </r>
       <r>   51.9951    0.0000 </r>
       <r>   52.4641    0.0000 </r>
       <r>   52.5385    0.0000 </r>
       <r>   52.5385    0.0000 </r>
       <r>   53.2360    0.0000 </r>
       <r>   53.3567    0.0000 </r>
       <r>   53.4283    0.0000 </r>
       <r>   53.4283    0.0000 </r>
       <r>   53.4496    0.0000 </r>
       <r>   54.7262    0.0000 </r>
       <r>   54.7262    0.0000 </r>
       <r>   55.2481    0.0000 </r>
       <r>   55.2481    0.0000 </r>
       <r>   55.3402    0.0000 </r>
       <r>   59.3221    0.0000 </r>
       <r>   60.6810    0.0000 </r>
       <r>   60.6810    0.0000 </r>
       <r>   60.6865    0.0000 </r>
       <r>   60.9143    0.0000 </r>
       <r>   61.2637    0.0000 </r>
       <r>   61.2637    0.0000 </r>
       <r>   61.6014    0.0000 </r>
       <r>   62.9146    0.0000 </r>
       <r>   64.3756    0.0000 </r>
       <r>   64.6092    0.0000 </r>
       <r>   65.3958    0.0000 </r>
       <r>   65.3995    0.0000 </r>
       <r>   65.3995    0.0000 </r>
       <r>   69.2908    0.0000 </r>
       <r>   69.2908    0.0000 </r>
       <r>   69.4470    0.0000 </r>
       <r>   69.4470    0.0000 </r>
       <r>   70.1500    0.0000 </r>
       <r>   70.1500    0.0000 </r>
       <r>   72.5073    0.0000 </r>
       <r>   73.4054    0.0000 </r>
       <r>   73.8676    0.0000 </r>
       <r>   75.8964    0.0000 </r>
       <r>   75.9811    0.0000 </r>
       <r>   76.3222    0.0000 </r>
       <r>   76.3680    0.0000 </r>
       <r>   77.6695    0.0000 </r>
       <r>   77.6695    0.0000 </r>
       <r>   77.9514    0.0000 </r>
       <r>   78.0764    0.0000 </r>
       <r>   78.0764    0.0000 </r>
       <r>   79.0759    0.0000 </r>
       <r>   79.3249    0.0000 </r>
       <r>   79.3249    0.0000 </r>
       <r>   79.3329    0.0000 </r>
       <r>   79.3329    0.0000 </r>
       <r>   80.2016    0.0000 </r>
       <r>   81.4471    0.0000 </r>
       <r>   81.6380    0.0000 </r>
       <r>   81.6380    0.0000 </r>
       <r>   82.9632    0.0000 </r>
       <r>   83.5458    0.0000 </r>
       <r>   83.5849    0.0000 </r>
       <r>   83.9976    0.0000 </r>
       <r>   84.9003    0.0000 </r>
       <r>   85.1235    0.0000 </r>
       <r>   85.1235    0.0000 </r>
       <r>   85.6052    0.0000 </r>
       <r>   85.6052    0.0000 </r>
       <r>   86.0096    0.0000 </r>
       <r>   86.6925    0.0000 </r>
       <r>   87.0904    0.0000 </r>
       <r>   87.0904    0.0000 </r>
       <r>   88.0707    0.0000 </r>
       <r>   88.6989    0.0000 </r>
       <r>   89.2213    0.0000 </r>
       <r>   89.2213    0.0000 </r>
       <r>   89.4842    0.0000 </r>
       <r>   89.6660    0.0000 </r>
       <r>   89.9212    0.0000 </r>
       <r>   90.4293    0.0000 </r>
       <r>   90.4293    0.0000 </r>
       <r>   90.5395    0.0000 </r>
       <r>   92.0668    0.0000 </r>
       <r>   92.2353    0.0000 </r>
       <r>   93.3163    0.0000 </r>
       <r>   93.8975    0.0000 </r>
       <r>   93.8975    0.0000 </r>
       <r>   94.6047    0.0000 </r>
       <r>   95.3798    0.0000 </r>
       <r>   95.7869    0.0000 </r>
       <r>   96.3167    0.0000 </r>
       <r>   96.3738    0.0000 </r>
       <r>   96.3738    0.0000 </r>
       <r>   97.7385    0.0000 </r>
       <r>   97.9147    0.0000 </r>
       <r>   98.3508    0.0000 </r>
       <r>   98.6105    0.0000 </r>
       <r>   98.6105    0.0000 </r>
       <r>   98.9133    0.0000 </r>
       <r>   98.9133    0.0000 </r>
       <r>   99.3610    0.0000 </r>
       <r>  100.1999    0.0000 </r>
       <r>  100.2268    0.0000 </r>
       <r>  101.0124    0.0000 </r>
       <r>  101.2906    0.0000 </r>
       <r>  101.5879    0.0000 </r>
       <r>  101.5879    0.0000 </r>
       <r>  103.6083    0.0000 </r>
       <r>  104.3431    0.0000 </r>
       <r>  104.4112    0.0000 </r>
       <r>  104.4112    0.0000 </r>
       <r>  104.9256    0.0000 </r>
       <r>  105.6967    0.0000 </r>
       <r>  106.5917    0.0000 </r>
       <r>  107.8293    0.0000 </r>
       <r>  108.0331    0.0000 </r>
       <r>  108.0331    0.0000 </r>
       <r>  108.7840    0.0000 </r>
       <r>  109.0559    0.0000 </r>
       <r>  109.3156    0.0000 </r>
       <r>  110.7635    0.0000 </r>
       <r>  110.7635    0.0000 </r>
       <r>  110.8097    0.0000 </r>
       <r>  110.8097    0.0000 </r>
       <r>  110.8235    0.0000 </r>
       <r>  111.9319    0.0000 </r>
       <r>  113.0525    0.0000 </r>
       <r>  113.0525    0.0000 </r>
       <r>  113.5740    0.0000 </r>
       <r>  113.5969    0.0000 </r>
       <r>  115.2824    0.0000 </r>
       <r>  115.7069    0.0000 </r>
       <r>  115.7069    0.0000 </r>
       <r>  116.1898    0.0000 </r>
       <r>  116.5659    0.0000 </r>
       <r>  116.5659    0.0000 </r>
       <r>  116.9495    0.0000 </r>
       <r>  116.9508    0.0000 </r>
       <r>  117.8574    0.0000 </r>
       <r>  118.6654    0.0000 </r>
       <r>  119.0333    0.0000 </r>
       <r>  119.0333    0.0000 </r>
       <r>  119.7270    0.0000 </r>
       <r>  119.9278    0.0000 </r>
       <r>  120.3483    0.0000 </r>
       <r>  120.3483    0.0000 </r>
       <r>  121.3028    0.0000 </r>
       <r>  121.3028    0.0000 </r>
       <r>  121.5252    0.0000 </r>
       <r>  121.5252    0.0000 </r>
       <r>  123.3485    0.0000 </r>
       <r>  123.3485    0.0000 </r>
       <r>  126.2433    0.0000 </r>
       <r>  126.5856    0.0000 </r>
       <r>  126.5856    0.0000 </r>
       <r>  126.8173    0.0000 </r>
       <r>  126.8173    0.0000 </r>
       <r>  126.9278    0.0000 </r>
       <r>  126.9278    0.0000 </r>
       <r>  127.4985    0.0000 </r>
       <r>  127.8229    0.0000 </r>
       <r>  128.6502    0.0000 </r>
       <r>  129.8356    0.0000 </r>
      </set>
      <set comment="kpoint 7">
       <r>    1.7466    1.0000 </r>
       <r>    4.2973    1.0000 </r>
       <r>    4.5028    1.0000 </r>
       <r>    4.5607    1.0000 </r>
       <r>    4.7741    1.0000 </r>
       <r>    4.9117    1.0000 </r>
       <r>    5.0313    1.0000 </r>
       <r>    6.5875    1.0000 </r>
       <r>    7.5100    1.0000 </r>
       <r>    7.5170    1.0000 </r>
       <r>    8.3394    1.0000 </r>
       <r>    8.5562    1.0000 </r>
       <r>    8.7239    1.0000 </r>
       <r>    8.7460    1.0000 </r>
       <r>    9.4264    1.0000 </r>
       <r>    9.8805    1.0000 </r>
       <r>   10.0534    1.0000 </r>
       <r>   10.3261    1.0000 </r>
       <r>   10.3353    1.0000 </r>
       <r>   11.0038   -0.0072 </r>
       <r>   11.0149   -0.0049 </r>
       <r>   11.5511   -0.0000 </r>
       <r>   14.4556    0.0000 </r>
       <r>   16.1429    0.0000 </r>
       <r>   17.6437    0.0000 </r>
       <r>   19.4830    0.0000 </r>
       <r>   21.1308    0.0000 </r>
       <r>   21.8240    0.0000 </r>
       <r>   22.4055    0.0000 </r>
       <r>   23.2630    0.0000 </r>
       <r>   23.6718    0.0000 </r>
       <r>   23.6984    0.0000 </r>
       <r>   24.6093    0.0000 </r>
       <r>   26.9083    0.0000 </r>
       <r>   27.7101    0.0000 </r>
       <r>   30.2425    0.0000 </r>
       <r>   30.8756    0.0000 </r>
       <r>   31.6694    0.0000 </r>
       <r>   31.9599    0.0000 </r>
       <r>   32.8062    0.0000 </r>
       <r>   33.0437    0.0000 </r>
       <r>   33.7416    0.0000 </r>
       <r>   35.4427    0.0000 </r>
       <r>   35.9029    0.0000 </r>
       <r>   38.0464    0.0000 </r>
       <r>   38.1964    0.0000 </r>
       <r>   38.3699    0.0000 </r>
       <r>   39.3966    0.0000 </r>
       <r>   40.1566    0.0000 </r>
       <r>   40.8225    0.0000 </r>
       <r>   41.7172    0.0000 </r>
       <r>   41.9208    0.0000 </r>
       <r>   42.0461    0.0000 </r>
       <r>   42.6347    0.0000 </r>
       <r>   43.3637    0.0000 </r>
       <r>   44.1639    0.0000 </r>
       <r>   44.3056    0.0000 </r>
       <r>   44.3070    0.0000 </r>
       <r>   44.3090    0.0000 </r>
       <r>   44.3715    0.0000 </r>
       <r>   44.3894    0.0000 </r>
       <r>   44.3915    0.0000 </r>
       <r>   44.4019    0.0000 </r>
       <r>   44.4035    0.0000 </r>
       <r>   44.4458    0.0000 </r>
       <r>   44.4782    0.0000 </r>
       <r>   44.5366    0.0000 </r>
       <r>   44.7975    0.0000 </r>
       <r>   46.5347    0.0000 </r>
       <r>   46.5856    0.0000 </r>
       <r>   46.5871    0.0000 </r>
       <r>   47.1462    0.0000 </r>
       <r>   47.3068    0.0000 </r>
       <r>   47.9648    0.0000 </r>
       <r>   48.6781    0.0000 </r>
       <r>   48.6864    0.0000 </r>
       <r>   49.1487    0.0000 </r>
       <r>   50.4783    0.0000 </r>
       <r>   50.7789    0.0000 </r>
       <r>   51.2648    0.0000 </r>
       <r>   51.8452    0.0000 </r>
       <r>   52.1884    0.0000 </r>
       <r>   52.6460    0.0000 </r>
       <r>   53.2688    0.0000 </r>
       <r>   53.4389    0.0000 </r>
       <r>   53.5928    0.0000 </r>
       <r>   53.8252    0.0000 </r>
       <r>   54.1947    0.0000 </r>
       <r>   54.6477    0.0000 </r>
       <r>   55.3753    0.0000 </r>
       <r>   56.2192    0.0000 </r>
       <r>   56.5150    0.0000 </r>
       <r>   56.5976    0.0000 </r>
       <r>   56.8285    0.0000 </r>
       <r>   57.1309    0.0000 </r>
       <r>   58.5883    0.0000 </r>
       <r>   60.8050    0.0000 </r>
       <r>   61.2391    0.0000 </r>
       <r>   61.5301    0.0000 </r>
       <r>   61.6810    0.0000 </r>
       <r>   62.3181    0.0000 </r>
       <r>   62.7387    0.0000 </r>
       <r>   63.0648    0.0000 </r>
       <r>   63.2523    0.0000 </r>
       <r>   63.8229    0.0000 </r>
       <r>   63.9789    0.0000 </r>
       <r>   65.2457    0.0000 </r>
       <r>   65.8565    0.0000 </r>
       <r>   66.0266    0.0000 </r>
       <r>   66.5259    0.0000 </r>
[...]
        <r>  0.0058  0.0000  0.3433 </r>
        <r>  0.0049  0.0000  0.3558 </r>
        <r>  0.0166  0.0000  0.1873 </r>
       </set>
       <set comment="band 151">
        <r>  0.0041  0.0000  0.3669 </r>
        <r>  0.0108  0.0000  0.2709 </r>
        <r>  0.0034  0.0000  0.3781 </r>
        <r>  0.0114  0.0000  0.2632 </r>
       </set>
       <set comment="band 152">
        <r>  0.0048  0.0000  0.3570 </r>
        <r>  0.0128  0.0000  0.2419 </r>
        <r>  0.0118  0.0000  0.2563 </r>
        <r>  0.0002  0.0000  0.4239 </r>
       </set>
       <set comment="band 153">
        <r>  0.0000  0.0299  0.0000 </r>
        <r>  0.0000  0.0059  0.0000 </r>
        <r>  0.0000  0.0149  0.0000 </r>
        <r>  0.0000  0.0232  0.0000 </r>
       </set>
       <set comment="band 154">
        <r>  0.0000  0.0307  0.0000 </r>
        <r>  0.0000  0.0210  0.0000 </r>
        <r>  0.0000  0.0124  0.0000 </r>
        <r>  0.0000  0.0098  0.0000 </r>
       </set>
       <set comment="band 155">
        <r>  0.0000  0.0088  0.0000 </r>
        <r>  0.0000  0.0317  0.0000 </r>
        <r>  0.0000  0.0204  0.0000 </r>
        <r>  0.0000  0.0130  0.0000 </r>
       </set>
       <set comment="band 156">
        <r>  0.0000  0.0261  0.0000 </r>
        <r>  0.0000  0.0152  0.0000 </r>
        <r>  0.0000  0.0126  0.0000 </r>
        <r>  0.0000  0.0199  0.0000 </r>
       </set>
       <set comment="band 157">
        <r>  0.0000  0.0163  0.0000 </r>
        <r>  0.0000  0.0186  0.0000 </r>
        <r>  0.0000  0.0179  0.0000 </r>
        <r>  0.0000  0.0212  0.0000 </r>
       </set>
       <set comment="band 158">
        <r>  0.0000  0.0106  0.0000 </r>
        <r>  0.0000  0.0354  0.0000 </r>
        <r>  0.0000  0.0154  0.0000 </r>
        <r>  0.0000  0.0125  0.0000 </r>
       </set>
       <set comment="band 159">
        <r>  0.0000  0.0127  0.0000 </r>
        <r>  0.0000  0.0073  0.0000 </r>
        <r>  0.0000  0.0162  0.0000 </r>
        <r>  0.0000  0.0377  0.0000 </r>
       </set>
       <set comment="band 160">
        <r>  0.0000  0.0127  0.0000 </r>
        <r>  0.0000  0.0126  0.0000 </r>
        <r>  0.0000  0.0381  0.0000 </r>
        <r>  0.0000  0.0106  0.0000 </r>
       </set>
       <set comment="band 161">
        <r>  0.0000  0.0000  0.7892 </r>
        <r>  0.0000  0.0000  0.5354 </r>
        <r>  0.0000  0.0000  0.5850 </r>
        <r>  0.0000  0.0000  0.2732 </r>
       </set>
       <set comment="band 162">
        <r>  0.0000  0.0000  0.5776 </r>
        <r>  0.0000  0.0000  0.9308 </r>
        <r>  0.0000  0.0000  0.3020 </r>
        <r>  0.0000  0.0000  0.3722 </r>
       </set>
       <set comment="band 163">
        <r>  0.0000  0.0000  0.6702 </r>
        <r>  0.0000  0.0000  0.3406 </r>
        <r>  0.0000  0.0000  0.7245 </r>
        <r>  0.0000  0.0000  0.4473 </r>
       </set>
       <set comment="band 164">
        <r>  0.0000  0.0000  0.2670 </r>
        <r>  0.0000  0.0000  0.3418 </r>
        <r>  0.0000  0.0000  0.6212 </r>
        <r>  0.0000  0.0000  0.9527 </r>
       </set>
       <set comment="band 165">
        <r>  0.0000  0.0000  0.5059 </r>
        <r>  0.0000  0.0000  0.5665 </r>
        <r>  0.0000  0.0000  0.3969 </r>
        <r>  0.0000  0.0000  0.7134 </r>
       </set>
       <set comment="band 166">
        <r>  0.0000  0.0000  0.2462 </r>
        <r>  0.0000  0.0000  0.6179 </r>
        <r>  0.0000  0.0000  0.9671 </r>
        <r>  0.0000  0.0000  0.3514 </r>
       </set>
       <set comment="band 167">
        <r>  0.0000  0.0000  0.4593 </r>
        <r>  0.0000  0.0000  0.6318 </r>
        <r>  0.0000  0.0000  0.3124 </r>
        <r>  0.0000  0.0000  0.7792 </r>
       </set>
       <set comment="band 168">
        <r>  0.0000  0.0000  0.8500 </r>
        <r>  0.0000  0.0000  0.4006 </r>
        <r>  0.0000  0.0000  0.4562 </r>
        <r>  0.0000  0.0000  0.4759 </r>
       </set>
       <set comment="band 169">
        <r>  0.0000  0.1467  0.0000 </r>
        <r>  0.0000  0.1220  0.0000 </r>
        <r>  0.0000  0.1382  0.0000 </r>
        <r>  0.0000  0.1595  0.0000 </r>
       </set>
       <set comment="band 170">
        <r>  0.0000  0.0822  0.0000 </r>
        <r>  0.0000  0.1874  0.0000 </r>
        <r>  0.0000  0.1811  0.0000 </r>
        <r>  0.0000  0.1156  0.0000 </r>
       </set>
       <set comment="band 171">
        <r>  0.0000  0.1527  0.0000 </r>
        <r>  0.0000  0.1198  0.0000 </r>
        <r>  0.0000  0.1661  0.0000 </r>
        <r>  0.0000  0.1277  0.0000 </r>
       </set>
       <set comment="band 172">
        <r>  0.0000  0.1848  0.0000 </r>
        <r>  0.0000  0.1371  0.0000 </r>
        <r>  0.0000  0.0809  0.0000 </r>
        <r>  0.0000  0.1635  0.0000 </r>
       </set>
       <set comment="band 173">
        <r>  0.0267  0.0000  0.2538 </r>
        <r>  0.0707  0.0000  0.2276 </r>
        <r>  0.2171  0.0000  0.1406 </r>
        <r>  0.1392  0.0000  0.1869 </r>
       </set>
       <set comment="band 174">
        <r>  0.2577  0.0000  0.1165 </r>
        <r>  0.0678  0.0000  0.2294 </r>
        <r>  0.0452  0.0000  0.2428 </r>
        <r>  0.0830  0.0000  0.2203 </r>
       </set>
       <set comment="band 175">
        <r>  0.0329  0.0000  0.2501 </r>
        <r>  0.1428  0.0000  0.1848 </r>
        <r>  0.0585  0.0000  0.2349 </r>
        <r>  0.2195  0.0000  0.1392 </r>
       </set>
       <set comment="band 176">
        <r>  0.1364  0.0000  0.1886 </r>
        <r>  0.1724  0.0000  0.1672 </r>
        <r>  0.1329  0.0000  0.1907 </r>
        <r>  0.0121  0.0000  0.2625 </r>
       </set>
       <set comment="band 177">
        <r>  0.0000  0.0493  0.0000 </r>
        <r>  0.0000  0.0095  0.0000 </r>
        <r>  0.0000  0.0239  0.0000 </r>
        <r>  0.0000  0.0385  0.0000 </r>
       </set>
       <set comment="band 178">
        <r>  0.0000  0.0139  0.0000 </r>
        <r>  0.0000  0.0513  0.0000 </r>
        <r>  0.0000  0.0098  0.0000 </r>
        <r>  0.0000  0.0461  0.0000 </r>
       </set>
       <set comment="band 179">
        <r>  0.0000  0.0284  0.0000 </r>
        <r>  0.0000  0.0109  0.0000 </r>
        <r>  0.0000  0.0596  0.0000 </r>
        <r>  0.0000  0.0223  0.0000 </r>
       </set>
       <set comment="band 180">
        <r>  0.0000  0.0168  0.0000 </r>
        <r>  0.0000  0.0701  0.0000 </r>
        <r>  0.0000  0.0232  0.0000 </r>
        <r>  0.0000  0.0112  0.0000 </r>
       </set>
       <set comment="band 181">
        <r>  0.0000  0.0366  0.0000 </r>
        <r>  0.0000  0.0296  0.0000 </r>
        <r>  0.0000  0.0067  0.0000 </r>
        <r>  0.0000  0.0483  0.0000 </r>
       </set>
       <set comment="band 182">
        <r>  0.0000  0.0075  0.0000 </r>
        <r>  0.0000  0.0164  0.0000 </r>
        <r>  0.0000  0.0539  0.0000 </r>
        <r>  0.0000  0.0435  0.0000 </r>
       </set>
       <set comment="band 183">
        <r>  0.0000  0.0522  0.0000 </r>
        <r>  0.0000  0.0407  0.0000 </r>
        <r>  0.0000  0.0101  0.0000 </r>
        <r>  0.0000  0.0181  0.0000 </r>
       </set>
       <set comment="band 184">
        <r>  0.0000  0.0377  0.0000 </r>
        <r>  0.0000  0.0139  0.0000 </r>
        <r>  0.0000  0.0552  0.0000 </r>
        <r>  0.0000  0.0144  0.0000 </r>
       </set>
       <set comment="band 185">
        <r>  0.0000  0.0000  0.2596 </r>
        <r>  0.0000  0.0000  0.2632 </r>
        <r>  0.0000  0.0000  0.0477 </r>
        <r>  0.0000  0.0000  0.0859 </r>
       </set>
       <set comment="band 186">
        <r>  0.0000  0.0000  0.0469 </r>
        <r>  0.0000  0.0000  0.2018 </r>
        <r>  0.0000  0.0000  0.1869 </r>
        <r>  0.0000  0.0000  0.2207 </r>
       </set>
       <set comment="band 187">
        <r>  0.0000  0.0000  0.2084 </r>
        <r>  0.0000  0.0000  0.1493 </r>
        <r>  0.0000  0.0000  0.1219 </r>
        <r>  0.0000  0.0000  0.1768 </r>
       </set>
       <set comment="band 188">
        <r>  0.0000  0.0000  0.1114 </r>
        <r>  0.0000  0.0000  0.1651 </r>
        <r>  0.0000  0.0000  0.1974 </r>
        <r>  0.0000  0.0000  0.1824 </r>
       </set>
       <set comment="band 189">
        <r>  0.0000  0.0000  0.2085 </r>
        <r>  0.0000  0.0000  0.1609 </r>
        <r>  0.0000  0.0000  0.0917 </r>
        <r>  0.0000  0.0000  0.1952 </r>
       </set>
       <set comment="band 190">
        <r>  0.0000  0.0000  0.1438 </r>
        <r>  0.0000  0.0000  0.1443 </r>
        <r>  0.0000  0.0000  0.1290 </r>
        <r>  0.0000  0.0000  0.2393 </r>
       </set>
       <set comment="band 191">
        <r>  0.0000  0.0000  0.1601 </r>
        <r>  0.0000  0.0000  0.0462 </r>
        <r>  0.0000  0.0000  0.3621 </r>
        <r>  0.0000  0.0000  0.0880 </r>
       </set>
       <set comment="band 192">
        <r>  0.0000  0.0000  0.1741 </r>
        <r>  0.0000  0.0000  0.1819 </r>
        <r>  0.0000  0.0000  0.1760 </r>
        <r>  0.0000  0.0000  0.1244 </r>
       </set>
       <set comment="band 193">
        <r>  0.0000  0.0051  0.0000 </r>
        <r>  0.0000  0.0186  0.0000 </r>
        <r>  0.0000  0.0103  0.0000 </r>
        <r>  0.0000  0.0102  0.0000 </r>
       </set>
       <set comment="band 194">
        <r>  0.0000  0.0153  0.0000 </r>
        <r>  0.0000  0.0083  0.0000 </r>
        <r>  0.0000  0.0096  0.0000 </r>
        <r>  0.0000  0.0110  0.0000 </r>
       </set>
       <set comment="band 195">
        <r>  0.0000  0.0139  0.0000 </r>
        <r>  0.0000  0.0136  0.0000 </r>
        <r>  0.0000  0.0105  0.0000 </r>
        <r>  0.0000  0.0062  0.0000 </r>
       </set>
       <set comment="band 196">
        <r>  0.0000  0.0076  0.0000 </r>
        <r>  0.0000  0.0090  0.0000 </r>
        <r>  0.0000  0.0180  0.0000 </r>
        <r>  0.0000  0.0096  0.0000 </r>
       </set>
       <set comment="band 197">
        <r>  0.0000  0.0195  0.0000 </r>
        <r>  0.0000  0.0144  0.0000 </r>
        <r>  0.0000  0.0066  0.0000 </r>
        <r>  0.0000  0.0037  0.0000 </r>
       </set>
       <set comment="band 198">
        <r>  0.0000  0.0125  0.0000 </r>
        <r>  0.0000  0.0098  0.0000 </r>
        <r>  0.0000  0.0072  0.0000 </r>
        <r>  0.0000  0.0147  0.0000 </r>
       </set>
       <set comment="band 199">
        <r>  0.0000  0.0059  0.0000 </r>
        <r>  0.0000  0.0033  0.0000 </r>
        <r>  0.0000  0.0093  0.0000 </r>
        <r>  0.0000  0.0256  0.0000 </r>
       </set>
       <set comment="band 200">
        <r>  0.0000  0.0085  0.0000 </r>
        <r>  0.0000  0.0115  0.0000 </r>
        <r>  0.0000  0.0168  0.0000 </r>
        <r>  0.0000  0.0074  0.0000 </r>
       </set>
       <set comment="band 201">
        <r>  0.0000  0.0039  0.0000 </r>
        <r>  0.0000  0.0034  0.0000 </r>
        <r>  0.0000  0.0024  0.0000 </r>
        <r>  0.0000  0.0025  0.0000 </r>
       </set>
       <set comment="band 202">
        <r>  0.0000  0.0006  0.0000 </r>
        <r>  0.0000  0.0038  0.0000 </r>
        <r>  0.0000  0.0037  0.0000 </r>
        <r>  0.0000  0.0040  0.0000 </r>
       </set>
       <set comment="band 203">
        <r>  0.0000  0.0038  0.0000 </r>
        <r>  0.0000  0.0038  0.0000 </r>
        <r>  0.0000  0.0030  0.0000 </r>
        <r>  0.0000  0.0016  0.0000 </r>
       </set>
       <set comment="band 204">
        <r>  0.0000  0.0038  0.0000 </r>
        <r>  0.0000  0.0012  0.0000 </r>
        <r>  0.0000  0.0030  0.0000 </r>
        <r>  0.0000  0.0040  0.0000 </r>
       </set>
       <set comment="band 205">
        <r>  0.1972  0.0000  0.0028 </r>
        <r>  0.0426  0.0000  0.0044 </r>
        <r>  0.1936  0.0000  0.0028 </r>
        <r>  0.0286  0.0000  0.0046 </r>
       </set>
       <set comment="band 206">
        <r>  0.1777  0.0000  0.0030 </r>
        <r>  0.0323  0.0000  0.0045 </r>
        <r>  0.1952  0.0000  0.0028 </r>
        <r>  0.0567  0.0000  0.0043 </r>
       </set>
       <set comment="band 207">
        <r>  0.0208  0.0000  0.0047 </r>
        <r>  0.0089  0.0000  0.0048 </r>
        <r>  0.0632  0.0000  0.0042 </r>
        <r>  0.3691  0.0000  0.0010 </r>
       </set>
       <set comment="band 208">
        <r>  0.0663  0.0000  0.0042 </r>
        <r>  0.3781  0.0000  0.0009 </r>
        <r>  0.0099  0.0000  0.0048 </r>
        <r>  0.0076  0.0000  0.0048 </r>
       </set>
       <set comment="band 209">
        <r>  0.0000  0.0000  0.2733 </r>
        <r>  0.0000  0.0000  0.1591 </r>
        <r>  0.0000  0.0000  0.0744 </r>
        <r>  0.0000  0.0000  0.1930 </r>
       </set>
       <set comment="band 210">
        <r>  0.0000  0.0000  0.1270 </r>
        <r>  0.0000  0.0000  0.1691 </r>
        <r>  0.0000  0.0000  0.1908 </r>
        <r>  0.0000  0.0000  0.2128 </r>
       </set>
       <set comment="band 211">
        <r>  0.0000  0.0000  0.1651 </r>
        <r>  0.0000  0.0000  0.1626 </r>
        <r>  0.0000  0.0000  0.1516 </r>
        <r>  0.0000  0.0000  0.2203 </r>
       </set>
       <set comment="band 212">
        <r>  0.0000  0.0000  0.1946 </r>
        <r>  0.0000  0.0000  0.1527 </r>
        <r>  0.0000  0.0000  0.1299 </r>
        <r>  0.0000  0.0000  0.2224 </r>
       </set>
       <set comment="band 213">
        <r>  0.0000  0.0000  0.1887 </r>
        <r>  0.0000  0.0000  0.2079 </r>
        <r>  0.0000  0.0000  0.0884 </r>
        <r>  0.0000  0.0000  0.2146 </r>
       </set>
       <set comment="band 214">
        <r>  0.0000  0.0000  0.2129 </r>
        <r>  0.0000  0.0000  0.1718 </r>
        <r>  0.0000  0.0000  0.1700 </r>
        <r>  0.0000  0.0000  0.1450 </r>
       </set>
       <set comment="band 215">
        <r>  0.0000  0.0000  0.0781 </r>
        <r>  0.0000  0.0000  0.2401 </r>
        <r>  0.0000  0.0000  0.2448 </r>
        <r>  0.0000  0.0000  0.1367 </r>
       </set>
       <set comment="band 216">
        <r>  0.0000  0.0000  0.1595 </r>
        <r>  0.0000  0.0000  0.1360 </r>
        <r>  0.0000  0.0000  0.3496 </r>
        <r>  0.0000  0.0000  0.0545 </r>
       </set>
       <set comment="band 217">
        <r>  0.1754  0.0000  0.0165 </r>
        <r>  0.0102  0.0000  0.0232 </r>
        <r>  0.0444  0.0000  0.0218 </r>
        <r>  0.3529  0.0000  0.0093 </r>
       </set>
       <set comment="band 218">
        <r>  0.2248  0.0000  0.0145 </r>
        <r>  0.0380  0.0000  0.0221 </r>
        <r>  0.1262  0.0000  0.0185 </r>
        <r>  0.1938  0.0000  0.0158 </r>
       </set>
       <set comment="band 219">
        <r>  0.0510  0.0000  0.0216 </r>
        <r>  0.3871  0.0000  0.0079 </r>
        <r>  0.1295  0.0000  0.0184 </r>
        <r>  0.0153  0.0000  0.0230 </r>
       </set>
       <set comment="band 220">
        <r>  0.1317  0.0000  0.0183 </r>
        <r>  0.1476  0.0000  0.0176 </r>
        <r>  0.2827  0.0000  0.0122 </r>
        <r>  0.0209  0.0000  0.0228 </r>
       </set>
       <set comment="band 221">
        <r>  0.0000  0.0043  0.0000 </r>
        <r>  0.0000  0.0025  0.0000 </r>
        <r>  0.0000  0.0039  0.0000 </r>
        <r>  0.0000  0.0034  0.0000 </r>
       </set>
       <set comment="band 222">
        <r>  0.0000  0.0021  0.0000 </r>
        <r>  0.0000  0.0040  0.0000 </r>
        <r>  0.0000  0.0038  0.0000 </r>
        <r>  0.0000  0.0042  0.0000 </r>
       </set>
       <set comment="band 223">
        <r>  0.0000  0.0034  0.0000 </r>
        <r>  0.0000  0.0036  0.0000 </r>
        <r>  0.0000  0.0033  0.0000 </r>
        <r>  0.0000  0.0037  0.0000 </r>
       </set>
       <set comment="band 224">
        <r>  0.0000  0.0042  0.0000 </r>
        <r>  0.0000  0.0040  0.0000 </r>
        <r>  0.0000  0.0030  0.0000 </r>
        <r>  0.0000  0.0028  0.0000 </r>
       </set>
       <set comment="band 225">
        <r>  0.0000  0.0166  0.0000 </r>
        <r>  0.0000  0.0083  0.0000 </r>
        <r>  0.0000  0.0042  0.0000 </r>
        <r>  0.0000  0.0013  0.0000 </r>
       </set>
       <set comment="band 226">
        <r>  0.0000  0.0096  0.0000 </r>
        <r>  0.0000  0.0024  0.0000 </r>
        <r>  0.0000  0.0074  0.0000 </r>
        <r>  0.0000  0.0109  0.0000 </r>
       </set>
       <set comment="band 227">
        <r>  0.0000  0.0058  0.0000 </r>
        <r>  0.0000  0.0034  0.0000 </r>
        <r>  0.0000  0.0134  0.0000 </r>
        <r>  0.0000  0.0078  0.0000 </r>
       </set>
       <set comment="band 228">
        <r>  0.0000  0.0076  0.0000 </r>
        <r>  0.0000  0.0032  0.0000 </r>
        <r>  0.0000  0.0087  0.0000 </r>
        <r>  0.0000  0.0108  0.0000 </r>
       </set>
       <set comment="band 229">
        <r>  0.0000  0.0039  0.0000 </r>
        <r>  0.0000  0.0149  0.0000 </r>
        <r>  0.0000  0.0037  0.0000 </r>
        <r>  0.0000  0.0078  0.0000 </r>
       </set>
       <set comment="band 230">
        <r>  0.0000  0.0024  0.0000 </r>
        <r>  0.0000  0.0137  0.0000 </r>
        <r>  0.0000  0.0073  0.0000 </r>
        <r>  0.0000  0.0069  0.0000 </r>
       </set>
       <set comment="band 231">
        <r>  0.0000  0.0047  0.0000 </r>
        <r>  0.0000  0.0094  0.0000 </r>
        <r>  0.0000  0.0050  0.0000 </r>
        <r>  0.0000  0.0113  0.0000 </r>
       </set>
       <set comment="band 232">
        <r>  0.0000  0.0101  0.0000 </r>
        <r>  0.0000  0.0054  0.0000 </r>
        <r>  0.0000  0.0110  0.0000 </r>
        <r>  0.0000  0.0038  0.0000 </r>
       </set>
       <set comment="band 233">
        <r>  0.0000  0.0000  0.0341 </r>
        <r>  0.0000  0.0000  0.1605 </r>
        <r>  0.0000  0.0000  0.1074 </r>
        <r>  0.0000  0.0000  0.1517 </r>
       </set>
       <set comment="band 234">
        <r>  0.0000  0.0000  0.1075 </r>
        <r>  0.0000  0.0000  0.1425 </r>
        <r>  0.0000  0.0000  0.1041 </r>
        <r>  0.0000  0.0000  0.0996 </r>
       </set>
       <set comment="band 235">
        <r>  0.0000  0.0000  0.0639 </r>
        <r>  0.0000  0.0000  0.1254 </r>
        <r>  0.0000  0.0000  0.1632 </r>
        <r>  0.0000  0.0000  0.1013 </r>
       </set>
       <set comment="band 236">
        <r>  0.0000  0.0000  0.1416 </r>
        <r>  0.0000  0.0000  0.1025 </r>
        <r>  0.0000  0.0000  0.1228 </r>
        <r>  0.0000  0.0000  0.0868 </r>
       </set>
       <set comment="band 237">
        <r>  0.0000  0.0000  0.1851 </r>
        <r>  0.0000  0.0000  0.0216 </r>
        <r>  0.0000  0.0000  0.0483 </r>
        <r>  0.0000  0.0000  0.1986 </r>
       </set>
       <set comment="band 238">
        <r>  0.0000  0.0000  0.1455 </r>
        <r>  0.0000  0.0000  0.0903 </r>
        <r>  0.0000  0.0000  0.1173 </r>
        <r>  0.0000  0.0000  0.1004 </r>
       </set>
       <set comment="band 239">
        <r>  0.0000  0.0000  0.1421 </r>
        <r>  0.0000  0.0000  0.0879 </r>
        <r>  0.0000  0.0000  0.1102 </r>
        <r>  0.0000  0.0000  0.1127 </r>
       </set>
       <set comment="band 240">
        <r>  0.0000  0.0001  0.0841 </r>
        <r>  0.0000  0.0001  0.1701 </r>
        <r>  0.0000  0.0001  0.1280 </r>
        <r>  0.0000  0.0002  0.0541 </r>
       </set>
      </set>
     </set>
    </set>
   </array>
  </projected>
 </calculation>
 <structure name="finalpos" >
  <crystal>
   <varray name="basis" >
    <v>       3.94400001       0.00000000       0.00000000 </v>
    <v>       0.00000000       3.94400001       0.00000000 </v>
    <v>       0.00000000       0.00000000       3.94400001 </v>
   </varray>
   <i name="volume">     61.34945665 </i>
   <varray name="rec_basis" >
    <v>       0.25354970       0.00000000       0.00000000 </v>
    <v>       0.00000000       0.25354970       0.00000000 </v>
    <v>       0.00000000       0.00000000       0.25354970 </v>
   </varray>
  </crystal>
  <varray name="positions" >
   <v>       0.00000000       0.00000000       0.00000000 </v>
   <v>       0.00000000       0.50000000       0.50000000 </v>
   <v>       0.50000000       0.00000000       0.50000000 </v>
   <v>       0.50000000       0.50000000       0.00000000 </v>
  </varray>
 </structure>
</modeling>
