 
             +---------------------------------------------------+
             |                                                   |
             |                   WANNIER90                       |
             |                                                   |
             +---------------------------------------------------+
             |                                                   |
             |        Welcome to the Maximally-Localized         |
             |        Generalized Wannier Functions code         |
             |            http://www.wannier.org                 |
             |                                                   |
             |                                                   |
             |  Wannier90 Developer Group:                       |
             |    Giovanni Pizzi    (EPFL)                       |
             |    Valerio Vitale    (Cambridge)                  |
             |    David Vanderbilt  (Rutgers University)         |
             |    Nicola Marzari    (EPFL)                       |
             |    Ivo Souza         (Universidad del Pais Vasco) |
             |    Arash A. Mostofi  (Imperial College London)    |
             |    Jonathan R. Yates (University of Oxford)       |
             |                                                   |
             |  For the full list of Wannier90 3.x authors,      |
             |  please check the code documentation and the      |
             |  README on the GitHub page of the code            |
             |                                                   |
             |                                                   |
             |  Please cite                                      |
             |                                                   |
             |  [ref] "Wannier90 as a community code:            |
             |        new features and applications",            |
             |        G. Pizzi et al., J. Phys. Cond. Matt. 32,  |
             |        165902 (2020).                             |
             |        http://doi.org/10.1088/1361-648X/ab51ff    |
             |                                                   |
             |  in any publications arising from the use of      |
             |  this code. For the method please cite            |
             |                                                   |
             |  [ref] "Maximally Localized Generalised Wannier   |
             |         Functions for Composite Energy Bands"     |
             |         N. Marzari and D. Vanderbilt              |
             |         Phys. Rev. B 56 12847 (1997)              |
             |                                                   |
             |  [ref] "Maximally Localized Wannier Functions     |
             |         for Entangled Energy Bands"               |
             |         I. Souza, N. Marzari and D. Vanderbilt    |
             |         Phys. Rev. B 65 035109 (2001)             |
             |                                                   |
             |                                                   |
             | Copyright (c) 1996-2020                           |
             |        The Wannier90 Developer Group and          |
             |        individual contributors                    |
             |                                                   |
             |      Release: 3.1.0        5th March    2020      |
             |                                                   |
             | This program is free software; you can            |
             | redistribute it and/or modify it under the terms  |
             | of the GNU General Public License as published by |
             | the Free Software Foundation; either version 2 of |
             | the License, or (at your option) any later version|
             |                                                   |
             | This program is distributed in the hope that it   |
             | will be useful, but WITHOUT ANY WARRANTY; without |
             | even the implied warranty of MERCHANTABILITY or   |
             | FITNESS FOR A PARTICULAR PURPOSE. See the GNU     |
             | General Public License for more details.          |
             |                                                   |
             | You should have received a copy of the GNU General|
             | Public License along with this program; if not,   |
             | write to the Free Software Foundation, Inc.,      |
             | 675 Mass Ave, Cambridge, MA 02139, USA.           |
             |                                                   |
             +---------------------------------------------------+
             |    Execution started on 28Mar2024 at 15:18:34     |
             +---------------------------------------------------+
 
 ******************************************************************************
 * -> Using CODATA 2006 constant values                                       *
 *    (http://physics.nist.gov/cuu/Constants/index.html)                      *
 * -> Using Bohr value from CODATA                                            *
 ******************************************************************************
 

 Running in parallel on 120 CPUs

 
                                    ------
                                    SYSTEM
                                    ------
 
                              Lattice Vectors (Ang)
                    a_1     3.944000   0.000000   0.000000
                    a_2     0.000000   3.944000   0.000000
                    a_3     0.000000   0.000000   3.944000
 
                   Unit Cell Volume:      61.34946  (Ang^3)
 
                        Reciprocal-Space Vectors (Ang^-1)
                    b_1     1.593100   0.000000   0.000000
                    b_2     0.000000   1.593100   0.000000
                    b_3     0.000000   0.000000   1.593100
  
 *----------------------------------------------------------------------------*
 |   Site       Fractional Coordinate          Cartesian Coordinate (Ang)     |
 +----------------------------------------------------------------------------+
 | Pt   1   0.00000   0.00000   0.00000   |    0.00000   0.00000   0.00000    |
 | Pt   2   0.00000   0.50000   0.50000   |    0.00000   1.97200   1.97200    |
 | Pt   3   0.50000   0.00000   0.50000   |    1.97200   0.00000   1.97200    |
 | Pt   4   0.50000   0.50000   0.00000   |    1.97200   1.97200   0.00000    |
 *----------------------------------------------------------------------------*
                                ------------
                                K-POINT GRID
                                ------------
  
             Grid size =  8 x  8 x  8      Total points =  512
  
  
 *---------------------------------- MAIN ------------------------------------*
 |  Number of Wannier Functions               :                36             |
 |  Number of Objective Wannier Functions     :                36             |
 |  Number of input Bloch states              :               240             |
 |  Output verbosity (1=low, 5=high)          :                 1             |
 |  Timing Level (1=low, 5=high)              :                 1             |
 |  Optimisation (0=memory, 3=speed)          :                 3             |
 |  Length Unit                               :               Ang             |
 |  Post-processing setup (write *.nnkp)      :                 F             |
 |  Using Gamma-only branch of algorithms     :                 F             |
 *----------------------------------------------------------------------------*
 *------------------------------- WANNIERISE ---------------------------------*
 |  Total number of iterations                :               100             |
 |  Number of CG steps before reset           :                 5             |
 |  Trial step length for line search         :             2.000             |
 |  Convergence tolerence                     :         0.100E-09             |
 |  Convergence window                        :                -1             |
 |  Iterations between writing output         :                 1             |
 |  Iterations between backing up to disk     :               100             |
 |  Write r^2_nm to file                      :                 F             |
 |  Write xyz WF centres to file              :                 F             |
 |  Write on-site energies <0n|H|0n> to file  :                 F             |
 |  Use guiding centre to control phases      :                 T             |
 |  Use phases for initial projections        :                 F             |
 |  Iterations before starting guiding centres:                 0             |
 |  Iterations between using guiding centres  :                 1             |
 *----------------------------------------------------------------------------*
 *------------------------------- DISENTANGLE --------------------------------*
 |  Using band disentanglement                :                 T             |
 |  Total number of iterations                :               200             |
 |  Mixing ratio                              :             0.500             |
 |  Convergence tolerence                     :         1.000E-10             |
 |  Convergence window                        :                 3             |
 *----------------------------------------------------------------------------*
 *-------------------------------- PLOTTING ----------------------------------*
 |  Plotting Hamiltonian in WF basis          :                 T             |
 *----------------------------------------------------------------------------*
 Time to read parameters        0.086 (sec)

 *---------------------------------- K-MESH ----------------------------------*
 +----------------------------------------------------------------------------+
 |                    Distance to Nearest-Neighbour Shells                    |
 |                    ------------------------------------                    |
 |          Shell             Distance (Ang^-1)          Multiplicity         |
 |          -----             -----------------          ------------         |
 |             1                   0.199137                      6            |
 |             2                   0.281623                     12            |
 |             3                   0.344916                      8            |
 |             4                   0.398275                      6            |
 |             5                   0.445285                     24            |
 |             6                   0.487785                     24            |
 |             7                   0.563246                     12            |
 |             8                   0.597412                     30            |
 |             9                   0.629728                     24            |
 |            10                   0.660464                     24            |
 |            11                   0.689832                      8            |
 |            12                   0.718000                     24            |
 |            13                   0.745104                     48            |
 |            14                   0.796550                      6            |
 |            15                   0.821065                     48            |
 |            16                   0.844869                     36            |
 |            17                   0.868020                     24            |
 |            18                   0.890570                     24            |
 |            19                   0.912563                     48            |
 |            20                   0.934038                     24            |
 |            21                   0.975570                     24            |
 |            22                   0.995687                     30            |
 |            23                   1.015406                     72            |
 |            24                   1.034749                     32            |
 |            25                   1.072388                     72            |
 |            26                   1.090721                     48            |
 |            27                   1.126492                     12            |
 |            28                   1.143958                     48            |
 |            29                   1.161161                     48            |
 |            30                   1.178113                     48            |
 |            31                   1.194825                     30            |
 |            32                   1.211306                     24            |
 |            33                   1.227566                     72            |
 |            34                   1.259456                     24            |
 |            35                   1.275102                     96            |
 |            36                   1.290558                     48            |
 +----------------------------------------------------------------------------+
 | The b-vectors are chosen automatically                                     |
 | The following shells are used:   1                                         |
 +----------------------------------------------------------------------------+
 |                        Shell   # Nearest-Neighbours                        |
 |                        -----   --------------------                        |
 |                          1               6                                 |
 +----------------------------------------------------------------------------+
 | Completeness relation is fully satisfied [Eq. (B1), PRB 56, 12847 (1997)]  |
 +----------------------------------------------------------------------------+
 |                  b_k Vectors (Ang^-1) and Weights (Ang^2)                  |
 |                  ----------------------------------------                  |
 |            No.         b_k(x)      b_k(y)      b_k(z)        w_b           |
 |            ---        --------------------------------     --------        |
 |             1         0.199137    0.000000    0.000000    12.608518        |
 |             2        -0.199137    0.000000    0.000000    12.608518        |
 |             3         0.000000    0.199137    0.000000    12.608518        |
 |             4         0.000000   -0.199137    0.000000    12.608518        |
 |             5         0.000000    0.000000    0.199137    12.608518        |
 |             6         0.000000    0.000000   -0.199137    12.608518        |
 +----------------------------------------------------------------------------+
 |                           b_k Directions (Ang^-1)                          |
 |                           -----------------------                          |
 |            No.           x           y           z                         |
 |            ---        --------------------------------                     |
 |             1         0.199137    0.000000    0.000000                     |
 |             2         0.000000    0.199137    0.000000                     |
 |             3         0.000000    0.000000    0.199137                     |
 +----------------------------------------------------------------------------+
  
 Time to get kmesh              0.143 (sec)
 *============================================================================*
 |                              MEMORY ESTIMATE                               |
 |         Maximum RAM allocated during each phase of the calculation         |
 *============================================================================*
 |                        Disentanglement         3749.97 Mb                  |
 |                            Wannierise:          235.04 Mb                  |
 |                          plot_wannier:          235.04 Mb                  |
 *----------------------------------------------------------------------------*
  
 Starting a new Wannier90 calculation ...


 Reading overlaps from wannier90.mmn    : File generated by VASP: unknown system

 Reading projections from wannier90.amn : File generated by VASP: unknown system

 Time to read overlaps         78.134 (sec)

 *------------------------------- DISENTANGLE --------------------------------*
 +----------------------------------------------------------------------------+
 |                              Energy  Windows                               |
 |                              ---------------                               |
 |                   Outer:    0.32315  to   36.58885  (eV)                   |
 |                   Inner:    8.80301  to   11.80301  (eV)                   |
 +----------------------------------------------------------------------------+
   Number of target bands to extract:   36

                   Unitarised projection of Wannier functions                  
                   ------------------------------------------                  
   A_mn = <psi_m|g_n> --> S = A.A^+ --> U = S^-1/2.A
   In dis_project... done
   Using an inner window (linner = T)
   In dis_proj_froz... done

                   Extraction of optimally-connected subspace                  
                   ------------------------------------------                  
 +---------------------------------------------------------------------+<-- DIS
 |  Iter     Omega_I(i-1)      Omega_I(i)      Delta (frac.)    Time   |<-- DIS
 +---------------------------------------------------------------------+<-- DIS
       1      57.17458879      53.67754960       6.515E-02      0.00    <-- DIS
       2      55.25233176      52.69119937       4.861E-02      0.08    <-- DIS
       3      53.88266873      52.05791668       3.505E-02      0.17    <-- DIS
       4      52.90629973      51.59618455       2.539E-02      0.25    <-- DIS
       5      52.20290523      51.24362657       1.872E-02      0.34    <-- DIS
       6      51.68548719      50.96555847       1.413E-02      0.42    <-- DIS
       7      51.29517227      50.74043094       1.093E-02      0.50    <-- DIS
       8      50.99285743      50.55418285       8.677E-03      0.59    <-- DIS
       9      50.75262965      50.39731643       7.050E-03      0.67    <-- DIS
      10      50.55720364      50.26322427       5.849E-03      0.75    <-- DIS
      11      50.39490473      50.14718437       4.940E-03      0.82    <-- DIS
      12      50.25771493      50.04573657       4.236E-03      0.90    <-- DIS
      13      50.14001775      49.95628547       3.678E-03      0.98    <-- DIS
      14      50.03779255      49.87684194       3.227E-03      1.06    <-- DIS
      15      49.94809507      49.80585122       2.856E-03      1.14    <-- DIS
      16      49.86871985      49.74207642       2.546E-03      1.22    <-- DIS
      17      49.79797842      49.68451796       2.284E-03      1.30    <-- DIS
      18      49.73455145      49.63235684       2.059E-03      1.38    <-- DIS
      19      49.67738882      49.58491388       1.865E-03      1.46    <-- DIS
      20      49.62564079      49.54161998       1.696E-03      1.54    <-- DIS
      21      49.57860982      49.50199388       1.548E-03      1.61    <-- DIS
      22      49.53571608      49.46562546       1.417E-03      1.69    <-- DIS
      23      49.49647242      49.43216273       1.301E-03      1.77    <-- DIS
      24      49.46046573      49.40130182       1.198E-03      1.85    <-- DIS
      25      49.42734291      49.37277897       1.105E-03      1.93    <-- DIS
      26      49.39680003      49.34636410       1.022E-03      2.01    <-- DIS
      27      49.36857394      49.32185566       9.472E-04      2.09    <-- DIS
      28      49.34243554      49.29907637       8.795E-04      2.17    <-- DIS
      29      49.31818443      49.27786974       8.181E-04      2.24    <-- DIS
      30      49.29564457      49.25809710       7.623E-04      2.32    <-- DIS
      31      49.27466070      49.23963523       7.113E-04      2.40    <-- DIS
      32      49.25509535      49.22237424       6.648E-04      2.49    <-- DIS
      33      49.23682644      49.20621590       6.221E-04      2.59    <-- DIS
      34      49.21974517      49.19107211       5.829E-04      2.66    <-- DIS
      35      49.20375430      49.17686362       5.468E-04      2.74    <-- DIS
      36      49.18876665      49.16351904       5.135E-04      2.82    <-- DIS
      37      49.17470384      49.15097379       4.828E-04      2.90    <-- DIS
      38      49.16149525      49.13916939       4.543E-04      2.98    <-- DIS
      39      49.14907704      49.12805273       4.279E-04      3.06    <-- DIS
      40      49.13739138      49.11757546       4.034E-04      3.14    <-- DIS
      41      49.12638577      49.10769345       3.806E-04      3.21    <-- DIS
      42      49.11601241      49.09836640       3.594E-04      3.29    <-- DIS
      43      49.10622770      49.08955737       3.396E-04      3.37    <-- DIS
      44      49.09699179      49.08123245       3.211E-04      3.45    <-- DIS
      45      49.08826818      49.07336048       3.038E-04      3.53    <-- DIS
      46      49.08002336      49.06591273       2.876E-04      3.61    <-- DIS
      47      49.07222653      49.05886271       2.724E-04      3.69    <-- DIS
      48      49.06484929      49.05218593       2.582E-04      3.76    <-- DIS
      49      49.05786547      49.04585971       2.448E-04      3.84    <-- DIS
      50      49.05125086      49.03986302       2.322E-04      3.92    <-- DIS
      51      49.04498305      49.03417637       2.204E-04      4.00    <-- DIS
      52      49.03904126      49.02878159       2.093E-04      4.08    <-- DIS
      53      49.03340621      49.02366179       1.988E-04      4.16    <-- DIS
      54      49.02805995      49.01880125       1.889E-04      4.24    <-- DIS
      55      49.02298579      49.01418526       1.796E-04      4.31    <-- DIS
      56      49.01816817      49.00980012       1.707E-04      4.39    <-- DIS
      57      49.01359258      49.00563298       1.624E-04      4.47    <-- DIS
      58      49.00924544      49.00167184       1.546E-04      4.55    <-- DIS
      59      49.00511407      48.99790545       1.471E-04      4.63    <-- DIS
      60      49.00118661      48.99432326       1.401E-04      4.71    <-- DIS
      61      48.99745192      48.99091537       1.334E-04      4.79    <-- DIS
      62      48.99389958      48.98767249       1.271E-04      4.86    <-- DIS
      63      48.99051979      48.98458587       1.211E-04      4.94    <-- DIS
      64      48.98730337      48.98164730       1.155E-04      5.02    <-- DIS
      65      48.98424167      48.97884905       1.101E-04      5.10    <-- DIS
      66      48.98132656      48.97618382       1.050E-04      5.18    <-- DIS
      67      48.97855040      48.97364476       1.002E-04      5.26    <-- DIS
      68      48.97590597      48.97122538       9.558E-05      5.33    <-- DIS
      69      48.97338649      48.96891960       9.122E-05      5.41    <-- DIS
      70      48.97098556      48.96672164       8.708E-05      5.49    <-- DIS
      71      48.96869714      48.96462607       8.314E-05      5.57    <-- DIS
      72      48.96651552      48.96262774       7.940E-05      5.65    <-- DIS
      73      48.96443532      48.96072179       7.585E-05      5.73    <-- DIS
      74      48.96245147      48.95890364       7.247E-05      5.81    <-- DIS
      75      48.96055914      48.95716894       6.925E-05      5.88    <-- DIS
      76      48.95875380      48.95551357       6.619E-05      5.96    <-- DIS
      77      48.95703115      48.95393365       6.327E-05      6.04    <-- DIS
      78      48.95538711      48.95242548       6.050E-05      6.12    <-- DIS
      79      48.95381784      48.95098559       5.786E-05      6.20    <-- DIS
      80      48.95231969      48.94961066       5.534E-05      6.28    <-- DIS
      81      48.95088920      48.94829755       5.295E-05      6.36    <-- DIS
      82      48.94952311      48.94704331       5.066E-05      6.43    <-- DIS
      83      48.94821830      48.94584510       4.849E-05      6.51    <-- DIS
      84      48.94697184      48.94470025       4.641E-05      6.59    <-- DIS
      85      48.94578094      48.94360623       4.443E-05      6.67    <-- DIS
      86      48.94464295      48.94256063       4.255E-05      6.75    <-- DIS
      87      48.94355535      48.94156116       4.075E-05      6.83    <-- DIS
      88      48.94251577      48.94060566       3.903E-05      6.91    <-- DIS
      89      48.94152194      48.93969206       3.739E-05      6.98    <-- DIS
      90      48.94057171      48.93881840       3.583E-05      7.06    <-- DIS
      91      48.93966305      48.93798282       3.433E-05      7.14    <-- DIS
      92      48.93879400      48.93718357       3.291E-05      7.22    <-- DIS
      93      48.93796274      48.93641894       3.155E-05      7.30    <-- DIS
      94      48.93716750      48.93568735       3.025E-05      7.38    <-- DIS
      95      48.93640663      48.93498728       2.900E-05      7.45    <-- DIS
      96      48.93567854      48.93431729       2.782E-05      7.53    <-- DIS
      97      48.93498173      48.93367598       2.668E-05      7.61    <-- DIS
      98      48.93431475      48.93306207       2.560E-05      7.69    <-- DIS
      99      48.93367627      48.93247431       2.456E-05      7.77    <-- DIS
     100      48.93306496      48.93191150       2.357E-05      7.85    <-- DIS
     101      48.93247961      48.93137252       2.263E-05      7.92    <-- DIS
     102      48.93191905      48.93085630       2.172E-05      8.00    <-- DIS
     103      48.93138214      48.93036182       2.085E-05      8.08    <-- DIS
     104      48.93086783      48.92988810       2.002E-05      8.16    <-- DIS
     105      48.93037510      48.92943422       1.923E-05      8.24    <-- DIS
     106      48.92990300      48.92899928       1.847E-05      8.32    <-- DIS
     107      48.92945059      48.92858245       1.774E-05      8.39    <-- DIS
     108      48.92901701      48.92818293       1.705E-05      8.47    <-- DIS
     109      48.92860142      48.92779996       1.638E-05      8.55    <-- DIS
     110      48.92820303      48.92743279       1.574E-05      8.63    <-- DIS
     111      48.92782107      48.92708074       1.513E-05      8.71    <-- DIS
     112      48.92745483      48.92674315       1.455E-05      8.79    <-- DIS
     113      48.92710361      48.92641938       1.398E-05      8.86    <-- DIS
     114      48.92676675      48.92610883       1.345E-05      8.94    <-- DIS
     115      48.92644364      48.92581093       1.293E-05      9.02    <-- DIS
     116      48.92613368      48.92552513       1.244E-05      9.10    <-- DIS
     117      48.92583628      48.92525090       1.196E-05      9.18    <-- DIS
     118      48.92555092      48.92498774       1.151E-05      9.26    <-- DIS
     119      48.92527707      48.92473518       1.108E-05      9.33    <-- DIS
     120      48.92501423      48.92449277       1.066E-05      9.41    <-- DIS
     121      48.92476194      48.92426006       1.026E-05      9.49    <-- DIS
     122      48.92451973      48.92403665       9.874E-06      9.57    <-- DIS
     123      48.92428719      48.92382214       9.506E-06      9.65    <-- DIS
     124      48.92406390      48.92361614       9.152E-06      9.73    <-- DIS
     125      48.92384946      48.92341831       8.813E-06      9.80    <-- DIS
     126      48.92364350      48.92322829       8.487E-06      9.88    <-- DIS
     127      48.92344567      48.92304576       8.174E-06      9.96    <-- DIS
     128      48.92325562      48.92287039       7.874E-06     10.04    <-- DIS
     129      48.92307302      48.92270190       7.586E-06     10.12    <-- DIS
     130      48.92289756      48.92253999       7.309E-06     10.20    <-- DIS
     131      48.92272894      48.92238438       7.043E-06     10.28    <-- DIS
     132      48.92256688      48.92223483       6.787E-06     10.35    <-- DIS
     133      48.92241110      48.92209106       6.542E-06     10.48    <-- DIS
     134      48.92226135      48.92195285       6.306E-06     10.57    <-- DIS
     135      48.92211738      48.92181996       6.079E-06     10.65    <-- DIS
     136      48.92197893      48.92169218       5.861E-06     10.73    <-- DIS
     137      48.92184580      48.92156930       5.652E-06     10.81    <-- DIS
     138      48.92171776      48.92145110       5.451E-06     10.89    <-- DIS
     139      48.92159459      48.92133742       5.257E-06     10.96    <-- DIS
     140      48.92147611      48.92122804       5.071E-06     11.04    <-- DIS
     141      48.92136212      48.92112282       4.892E-06     11.12    <-- DIS
     142      48.92125244      48.92102157       4.719E-06     11.20    <-- DIS
     143      48.92114690      48.92092413       4.554E-06     11.28    <-- DIS
     144      48.92104532      48.92083035       4.394E-06     11.36    <-- DIS
     145      48.92094755      48.92074008       4.241E-06     11.44    <-- DIS
     146      48.92085343      48.92065319       4.093E-06     11.51    <-- DIS
     147      48.92076282      48.92056953       3.951E-06     11.59    <-- DIS
     148      48.92067557      48.92048898       3.814E-06     11.67    <-- DIS
     149      48.92059156      48.92041141       3.682E-06     11.75    <-- DIS
     150      48.92051065      48.92033671       3.556E-06     11.83    <-- DIS
     151      48.92043272      48.92026476       3.433E-06     11.91    <-- DIS
     152      48.92035765      48.92019545       3.316E-06     11.98    <-- DIS
     153      48.92028534      48.92012867       3.202E-06     12.06    <-- DIS
     154      48.92021566      48.92006434       3.093E-06     12.14    <-- DIS
     155      48.92014852      48.92000235       2.988E-06     12.22    <-- DIS
     156      48.92008382      48.91994260       2.887E-06     12.30    <-- DIS
     157      48.92002146      48.91988502       2.789E-06     12.42    <-- DIS
     158      48.91996136      48.91982952       2.695E-06     12.52    <-- DIS
     159      48.91990341      48.91977601       2.604E-06     12.59    <-- DIS
     160      48.91984755      48.91972443       2.517E-06     12.67    <-- DIS
     161      48.91979368      48.91967469       2.432E-06     12.75    <-- DIS
     162      48.91974174      48.91962672       2.351E-06     12.85    <-- DIS
     163      48.91969165      48.91958047       2.273E-06     12.95    <-- DIS
     164      48.91964333      48.91953585       2.197E-06     13.02    <-- DIS
     165      48.91959672      48.91949281       2.124E-06     13.10    <-- DIS
     166      48.91955175      48.91945128       2.054E-06     13.18    <-- DIS
     167      48.91950837      48.91941122       1.986E-06     13.26    <-- DIS
     168      48.91946651      48.91937256       1.920E-06     13.34    <-- DIS
     169      48.91942611      48.91933526       1.857E-06     13.42    <-- DIS
     170      48.91938712      48.91929925       1.796E-06     13.49    <-- DIS
     171      48.91934948      48.91926450       1.737E-06     13.57    <-- DIS
     172      48.91931315      48.91923095       1.680E-06     13.65    <-- DIS
     173      48.91927808      48.91919856       1.626E-06     13.73    <-- DIS
     174      48.91924421      48.91916728       1.573E-06     13.81    <-- DIS
     175      48.91921151      48.91913708       1.521E-06     13.89    <-- DIS
     176      48.91917992      48.91910791       1.472E-06     13.96    <-- DIS
     177      48.91914942      48.91907974       1.424E-06     14.04    <-- DIS
     178      48.91911996      48.91905253       1.378E-06     14.12    <-- DIS
     179      48.91909149      48.91902625       1.334E-06     14.20    <-- DIS
     180      48.91906399      48.91900085       1.291E-06     14.28    <-- DIS
     181      48.91903742      48.91897631       1.249E-06     14.36    <-- DIS
     182      48.91901174      48.91895260       1.209E-06     14.44    <-- DIS
     183      48.91898692      48.91892968       1.170E-06     14.51    <-- DIS
     184      48.91896294      48.91890753       1.133E-06     14.59    <-- DIS
     185      48.91893975      48.91888611       1.096E-06     14.67    <-- DIS
     186      48.91891734      48.91886541       1.061E-06     14.75    <-- DIS
     187      48.91889567      48.91884540       1.028E-06     14.83    <-- DIS
     188      48.91887472      48.91882605       9.949E-07     14.91    <-- DIS
     189      48.91885445      48.91880734       9.632E-07     14.98    <-- DIS
     190      48.91883486      48.91878924       9.326E-07     15.06    <-- DIS
     191      48.91881591      48.91877173       9.030E-07     15.14    <-- DIS
     192      48.91879757      48.91875480       8.744E-07     15.22    <-- DIS
     193      48.91877984      48.91873842       8.467E-07     15.30    <-- DIS
     194      48.91876268      48.91872257       8.199E-07     15.38    <-- DIS
     195      48.91874608      48.91870724       7.940E-07     15.46    <-- DIS
     196      48.91873001      48.91869240       7.689E-07     15.53    <-- DIS
     197      48.91871447      48.91867804       7.446E-07     15.61    <-- DIS
     198      48.91869942      48.91866414       7.212E-07     15.69    <-- DIS
     199      48.91868486      48.91865069       6.985E-07     15.77    <-- DIS
     200      48.91867076      48.91863766       6.765E-07     15.85    <-- DIS

     <<< Warning: Maximum number of disentanglement iterations reached >>>
          <<< Disentanglement convergence criteria not satisfied >>>

        Final Omega_I    48.91863766 (Ang^2)

 +----------------------------------------------------------------------------+

 Time to disentangle bands     17.008 (sec)

 Writing checkpoint file wannier90.chk... done

 
 *------------------------------- WANNIERISE ---------------------------------*
 +--------------------------------------------------------------------+<-- CONV
 | Iter  Delta Spread     RMS Gradient      Spread (Ang^2)      Time  |<-- CONV
 +--------------------------------------------------------------------+<-- CONV
 
 ------------------------------------------------------------------------------
 Initial State
  WF centre and spread    1  ( -0.000000, -0.000000, -0.000000 )     2.30505103
  WF centre and spread    2  ( -0.000000, -0.000000, -0.000005 )     4.62052678
  WF centre and spread    3  ( -0.000005, -0.000000, -0.000000 )     4.62059043
  WF centre and spread    4  ( -0.000000, -0.000005, -0.000000 )     4.62059043
  WF centre and spread    5  (  0.000000,  0.000000,  0.000000 )     0.80788751
  WF centre and spread    6  ( -0.000000, -0.000000, -0.000000 )     0.76911731
  WF centre and spread    7  ( -0.000000, -0.000000, -0.000000 )     0.76911731
  WF centre and spread    8  (  0.000000,  0.000000,  0.000000 )     0.80788682
  WF centre and spread    9  ( -0.000000, -0.000000, -0.000000 )     0.76911752
  WF centre and spread   10  ( -0.000000, -1.972000, -1.972000 )     2.30505103
  WF centre and spread   11  ( -0.000000, -1.972000, -1.972005 )     4.62052678
  WF centre and spread   12  ( -0.000005, -1.972000, -1.972000 )     4.62059043
  WF centre and spread   13  ( -0.000000, -1.972005, -1.972000 )     4.62059043
  WF centre and spread   14  (  0.000000, -1.972000, -1.972000 )     0.80788751
  WF centre and spread   15  ( -0.000000, -1.972000, -1.972000 )     0.76911731
  WF centre and spread   16  ( -0.000000, -1.972000, -1.972000 )     0.76911731
  WF centre and spread   17  (  0.000000, -1.972000, -1.972000 )     0.80788682
  WF centre and spread   18  ( -0.000000, -1.972000, -1.972000 )     0.76911752
  WF centre and spread   19  ( -1.972000, -0.000000, -1.972000 )     2.30505103
  WF centre and spread   20  ( -1.972000, -0.000000, -1.972005 )     4.62052678
  WF centre and spread   21  ( -1.972005, -0.000000, -1.972000 )     4.62059043
  WF centre and spread   22  ( -1.972000, -0.000005, -1.972000 )     4.62059043
  WF centre and spread   23  ( -1.972000,  0.000000, -1.972000 )     0.80788751
  WF centre and spread   24  ( -1.972000, -0.000000, -1.972000 )     0.76911731
  WF centre and spread   25  ( -1.972000, -0.000000, -1.972000 )     0.76911731
  WF centre and spread   26  ( -1.972000,  0.000000, -1.972000 )     0.80788682
  WF centre and spread   27  ( -1.972000, -0.000000, -1.972000 )     0.76911752
  WF centre and spread   28  ( -1.972000, -1.972000, -0.000000 )     2.30505103
  WF centre and spread   29  ( -1.972000, -1.972000, -0.000005 )     4.62052678
  WF centre and spread   30  ( -1.972005, -1.972000, -0.000000 )     4.62059043
  WF centre and spread   31  ( -1.972000, -1.972005, -0.000000 )     4.62059043
  WF centre and spread   32  ( -1.972000, -1.972000,  0.000000 )     0.80788751
  WF centre and spread   33  ( -1.972000, -1.972000, -0.000000 )     0.76911731
  WF centre and spread   34  ( -1.972000, -1.972000, -0.000000 )     0.76911731
  WF centre and spread   35  ( -1.972000, -1.972000,  0.000000 )     0.80788682
  WF centre and spread   36  ( -1.972000, -1.972000, -0.000000 )     0.76911752
  Sum of centres and spreads (-35.496021,-35.496021,-35.496021 )    80.35954054
 
      0     0.804E+02     0.0000000000       80.3595405440      16.40  <-- CONV
        O_D=      0.0000000 O_OD=     31.4409029 O_TOT=     80.3595405 <-- SPRD
 ------------------------------------------------------------------------------
 Cycle:      1
  WF centre and spread    1  ( -0.000000, -0.000000, -0.000000 )     2.24017338
  WF centre and spread    2  ( -0.000000, -0.000000, -0.000006 )     4.61717992
  WF centre and spread    3  ( -0.000006, -0.000000, -0.000000 )     4.61723465
  WF centre and spread    4  ( -0.000000, -0.000006, -0.000000 )     4.61723465
  WF centre and spread    5  (  0.000000,  0.000000,  0.000000 )     0.79030473
  WF centre and spread    6  ( -0.000000,  0.000000, -0.000000 )     0.76393813
  WF centre and spread    7  (  0.000000, -0.000000, -0.000000 )     0.76393813
  WF centre and spread    8  (  0.000000,  0.000000,  0.000000 )     0.79030419
  WF centre and spread    9  ( -0.000000, -0.000000,  0.000000 )     0.76393792
  WF centre and spread   10  ( -0.000000, -1.972000, -1.972000 )     2.24017338
  WF centre and spread   11  ( -0.000000, -1.972000, -1.972006 )     4.61717992
  WF centre and spread   12  ( -0.000006, -1.972000, -1.972000 )     4.61723465
  WF centre and spread   13  ( -0.000000, -1.972006, -1.972000 )     4.61723465
  WF centre and spread   14  (  0.000000, -1.972000, -1.972000 )     0.79030473
  WF centre and spread   15  ( -0.000000, -1.972000, -1.972000 )     0.76393813
  WF centre and spread   16  (  0.000000, -1.972000, -1.972000 )     0.76393813
  WF centre and spread   17  (  0.000000, -1.972000, -1.972000 )     0.79030419
  WF centre and spread   18  ( -0.000000, -1.972000, -1.972000 )     0.76393792
  WF centre and spread   19  ( -1.972000, -0.000000, -1.972000 )     2.24017338
  WF centre and spread   20  ( -1.972000, -0.000000, -1.972006 )     4.61717992
  WF centre and spread   21  ( -1.972006, -0.000000, -1.972000 )     4.61723465
  WF centre and spread   22  ( -1.972000, -0.000006, -1.972000 )     4.61723465
  WF centre and spread   23  ( -1.972000,  0.000000, -1.972000 )     0.79030473
  WF centre and spread   24  ( -1.972000,  0.000000, -1.972000 )     0.76393813
  WF centre and spread   25  ( -1.972000, -0.000000, -1.972000 )     0.76393813
  WF centre and spread   26  ( -1.972000,  0.000000, -1.972000 )     0.79030419
  WF centre and spread   27  ( -1.972000, -0.000000, -1.972000 )     0.76393792
  WF centre and spread   28  ( -1.972000, -1.972000, -0.000000 )     2.24017338
  WF centre and spread   29  ( -1.972000, -1.972000, -0.000006 )     4.61717992
  WF centre and spread   30  ( -1.972006, -1.972000, -0.000000 )     4.61723465
  WF centre and spread   31  ( -1.972000, -1.972006, -0.000000 )     4.61723465
  WF centre and spread   32  ( -1.972000, -1.972000,  0.000000 )     0.79030473
  WF centre and spread   33  ( -1.972000, -1.972000, -0.000000 )     0.76393813
  WF centre and spread   34  ( -1.972000, -1.972000, -0.000000 )     0.76393813
  WF centre and spread   35  ( -1.972000, -1.972000,  0.000000 )     0.79030419
  WF centre and spread   36  ( -1.972000, -1.972000,  0.000000 )     0.76393792
  Sum of centres and spreads (-35.496027,-35.496027,-35.496027 )    79.85698277
 
      1    -0.503E+00     0.4918223266       79.8569827686      17.09  <-- CONV
        O_D=      0.0000000 O_OD=     30.9383451 O_TOT=     79.8569828 <-- SPRD
 Delta: O_D= -0.1515603E-09 O_OD= -0.5025578E+00 O_TOT= -0.5025578E+00 <-- DLTA
 ------------------------------------------------------------------------------
 Cycle:      2
  WF centre and spread    1  ( -0.000000, -0.000000, -0.000000 )     2.14127888
  WF centre and spread    2  ( -0.000001, -0.000001, -0.000007 )     4.62341447
  WF centre and spread    3  ( -0.000007, -0.000001, -0.000001 )     4.62347602
  WF centre and spread    4  ( -0.000001, -0.000007, -0.000001 )     4.62347602
  WF centre and spread    5  (  0.000000,  0.000000,  0.000000 )     0.78368672
  WF centre and spread    6  ( -0.000000,  0.000000, -0.000000 )     0.76004997
  WF centre and spread    7  (  0.000000, -0.000000, -0.000000 )     0.76004997
  WF centre and spread    8  (  0.000000,  0.000000,  0.000000 )     0.78368553
  WF centre and spread    9  ( -0.000000, -0.000000,  0.000000 )     0.76004974
  WF centre and spread   10  ( -0.000000, -1.972000, -1.972000 )     2.14127888
  WF centre and spread   11  ( -0.000001, -1.972001, -1.972007 )     4.62341447
  WF centre and spread   12  ( -0.000007, -1.972001, -1.972001 )     4.62347602
  WF centre and spread   13  ( -0.000001, -1.972007, -1.972001 )     4.62347602
  WF centre and spread   14  (  0.000000, -1.972000, -1.972000 )     0.78368672
  WF centre and spread   15  ( -0.000000, -1.972000, -1.972000 )     0.76004997
  WF centre and spread   16  (  0.000000, -1.972000, -1.972000 )     0.76004997
  WF centre and spread   17  (  0.000000, -1.972000, -1.972000 )     0.78368553
  WF centre and spread   18  ( -0.000000, -1.972000, -1.972000 )     0.76004974
  WF centre and spread   19  ( -1.972000, -0.000000, -1.972000 )     2.14127888
  WF centre and spread   20  ( -1.972001, -0.000001, -1.972007 )     4.62341447
  WF centre and spread   21  ( -1.972007, -0.000001, -1.972001 )     4.62347602
  WF centre and spread   22  ( -1.972001, -0.000007, -1.972001 )     4.62347602
  WF centre and spread   23  ( -1.972000,  0.000000, -1.972000 )     0.78368672
  WF centre and spread   24  ( -1.972000,  0.000000, -1.972000 )     0.76004997
  WF centre and spread   25  ( -1.972000, -0.000000, -1.972000 )     0.76004997
  WF centre and spread   26  ( -1.972000,  0.000000, -1.972000 )     0.78368553
  WF centre and spread   27  ( -1.972000, -0.000000, -1.972000 )     0.76004974
  WF centre and spread   28  ( -1.972000, -1.972000, -0.000000 )     2.14127888
  WF centre and spread   29  ( -1.972001, -1.972001, -0.000007 )     4.62341447
  WF centre and spread   30  ( -1.972007, -1.972001, -0.000001 )     4.62347602
  WF centre and spread   31  ( -1.972001, -1.972007, -0.000001 )     4.62347602
  WF centre and spread   32  ( -1.972000, -1.972000,  0.000000 )     0.78368672
  WF centre and spread   33  ( -1.972000, -1.972000, -0.000000 )     0.76004997
  WF centre and spread   34  ( -1.972000, -1.972000, -0.000000 )     0.76004997
  WF centre and spread   35  ( -1.972000, -1.972000,  0.000000 )     0.78368553
  WF centre and spread   36  ( -1.972000, -1.972000,  0.000000 )     0.76004974
  Sum of centres and spreads (-35.496038,-35.496038,-35.496038 )    79.43666923
 
      2    -0.420E+00     0.4686189120       79.4366692269      17.27  <-- CONV
        O_D=      0.0000000 O_OD=     30.5180316 O_TOT=     79.4366692 <-- SPRD
 Delta: O_D=  0.1368284E-08 O_OD= -0.4203135E+00 O_TOT= -0.4203135E+00 <-- DLTA
 ------------------------------------------------------------------------------
 Cycle:      3
  WF centre and spread    1  ( -0.000000, -0.000000, -0.000000 )     2.04333882
  WF centre and spread    2  ( -0.000001, -0.000001, -0.000010 )     4.63207623
  WF centre and spread    3  ( -0.000010, -0.000001, -0.000001 )     4.63213471
  WF centre and spread    4  ( -0.000001, -0.000010, -0.000001 )     4.63213471
  WF centre and spread    5  (  0.000000,  0.000000,  0.000000 )     0.78090846
  WF centre and spread    6  ( -0.000000,  0.000000, -0.000000 )     0.75829028
  WF centre and spread    7  (  0.000000, -0.000000, -0.000000 )     0.75829028
  WF centre and spread    8  (  0.000000,  0.000000,  0.000000 )     0.78090563
  WF centre and spread    9  ( -0.000000, -0.000000,  0.000000 )     0.75829046
  WF centre and spread   10  ( -0.000000, -1.972000, -1.972000 )     2.04333882
  WF centre and spread   11  ( -0.000001, -1.972001, -1.972010 )     4.63207623
  WF centre and spread   12  ( -0.000010, -1.972001, -1.972001 )     4.63213471
  WF centre and spread   13  ( -0.000001, -1.972010, -1.972001 )     4.63213471
  WF centre and spread   14  (  0.000000, -1.972000, -1.972000 )     0.78090846
  WF centre and spread   15  ( -0.000000, -1.972000, -1.972000 )     0.75829028
  WF centre and spread   16  (  0.000000, -1.972000, -1.972000 )     0.75829028
  WF centre and spread   17  (  0.000000, -1.972000, -1.972000 )     0.78090563
  WF centre and spread   18  ( -0.000000, -1.972000, -1.972000 )     0.75829046
  WF centre and spread   19  ( -1.972000, -0.000000, -1.972000 )     2.04333882
  WF centre and spread   20  ( -1.972001, -0.000001, -1.972010 )     4.63207623
  WF centre and spread   21  ( -1.972010, -0.000001, -1.972001 )     4.63213471
  WF centre and spread   22  ( -1.972001, -0.000010, -1.972001 )     4.63213471
  WF centre and spread   23  ( -1.972000,  0.000000, -1.972000 )     0.78090846
  WF centre and spread   24  ( -1.972000,  0.000000, -1.972000 )     0.75829028
  WF centre and spread   25  ( -1.972000, -0.000000, -1.972000 )     0.75829028
  WF centre and spread   26  ( -1.972000,  0.000000, -1.972000 )     0.78090563
  WF centre and spread   27  ( -1.972000, -0.000000, -1.972000 )     0.75829046
  WF centre and spread   28  ( -1.972000, -1.972000, -0.000000 )     2.04333882
  WF centre and spread   29  ( -1.972001, -1.972001, -0.000010 )     4.63207623
  WF centre and spread   30  ( -1.972010, -1.972001, -0.000001 )     4.63213471
  WF centre and spread   31  ( -1.972001, -1.972010, -0.000001 )     4.63213471
  WF centre and spread   32  ( -1.972000, -1.972000,  0.000000 )     0.78090846
  WF centre and spread   33  ( -1.972000, -1.972000, -0.000000 )     0.75829028
  WF centre and spread   34  ( -1.972000, -1.972000, -0.000000 )     0.75829028
  WF centre and spread   35  ( -1.972000, -1.972000,  0.000000 )     0.78090563
  WF centre and spread   36  ( -1.972000, -1.972000,  0.000000 )     0.75829046
  Sum of centres and spreads (-35.496048,-35.496048,-35.496048 )    79.10547835
 
      3    -0.331E+00     0.4456690031       79.1054783535      17.30  <-- CONV
        O_D=      0.0000000 O_OD=     30.1868407 O_TOT=     79.1054784 <-- SPRD
 Delta: O_D=  0.1235925E-08 O_OD= -0.3311909E+00 O_TOT= -0.3311909E+00 <-- DLTA
 ------------------------------------------------------------------------------
 Cycle:      4
  WF centre and spread    1  (  0.000000,  0.000000,  0.000000 )     1.96701721
  WF centre and spread    2  ( -0.000002, -0.000002, -0.000012 )     4.63784803
  WF centre and spread    3  ( -0.000012, -0.000002, -0.000002 )     4.63788220
  WF centre and spread    4  ( -0.000002, -0.000012, -0.000002 )     4.63788220
  WF centre and spread    5  (  0.000000,  0.000000,  0.000000 )     0.77849440
  WF centre and spread    6  ( -0.000000,  0.000000, -0.000000 )     0.75848377
  WF centre and spread    7  (  0.000000, -0.000000, -0.000000 )     0.75848377
  WF centre and spread    8  (  0.000000,  0.000000,  0.000000 )     0.77849093
  WF centre and spread    9  ( -0.000000, -0.000000,  0.000000 )     0.75848419
  WF centre and spread   10  (  0.000000, -1.972000, -1.972000 )     1.96701721
  WF centre and spread   11  ( -0.000002, -1.972002, -1.972012 )     4.63784803
  WF centre and spread   12  ( -0.000012, -1.972002, -1.972002 )     4.63788220
  WF centre and spread   13  ( -0.000002, -1.972012, -1.972002 )     4.63788220
  WF centre and spread   14  (  0.000000, -1.972000, -1.972000 )     0.77849440
  WF centre and spread   15  ( -0.000000, -1.972000, -1.972000 )     0.75848377
  WF centre and spread   16  (  0.000000, -1.972000, -1.972000 )     0.75848377
  WF centre and spread   17  (  0.000000, -1.972000, -1.972000 )     0.77849093
  WF centre and spread   18  ( -0.000000, -1.972000, -1.972000 )     0.75848419
  WF centre and spread   19  ( -1.972000,  0.000000, -1.972000 )     1.96701721
  WF centre and spread   20  ( -1.972002, -0.000002, -1.972012 )     4.63784803
  WF centre and spread   21  ( -1.972012, -0.000002, -1.972002 )     4.63788220
  WF centre and spread   22  ( -1.972002, -0.000012, -1.972002 )     4.63788220
  WF centre and spread   23  ( -1.972000,  0.000000, -1.972000 )     0.77849440
  WF centre and spread   24  ( -1.972000,  0.000000, -1.972000 )     0.75848377
  WF centre and spread   25  ( -1.972000, -0.000000, -1.972000 )     0.75848377
  WF centre and spread   26  ( -1.972000,  0.000000, -1.972000 )     0.77849093
  WF centre and spread   27  ( -1.972000, -0.000000, -1.972000 )     0.75848419
  WF centre and spread   28  ( -1.972000, -1.972000,  0.000000 )     1.96701721
  WF centre and spread   29  ( -1.972002, -1.972002, -0.000012 )     4.63784803
  WF centre and spread   30  ( -1.972012, -1.972002, -0.000002 )     4.63788220
  WF centre and spread   31  ( -1.972002, -1.972012, -0.000002 )     4.63788220
  WF centre and spread   32  ( -1.972000, -1.972000,  0.000000 )     0.77849440
  WF centre and spread   33  ( -1.972000, -1.972000, -0.000000 )     0.75848377
  WF centre and spread   34  ( -1.972000, -1.972000, -0.000000 )     0.75848377
  WF centre and spread   35  ( -1.972000, -1.972000,  0.000000 )     0.77849093
  WF centre and spread   36  ( -1.972000, -1.972000,  0.000000 )     0.75848419
  Sum of centres and spreads (-35.496058,-35.496058,-35.496058 )    78.85226675
 
      4    -0.253E+00     0.4004492146       78.8522667473      17.33  <-- CONV
        O_D=      0.0000000 O_OD=     29.9336291 O_TOT=     78.8522667 <-- SPRD
 Delta: O_D=  0.1575925E-08 O_OD= -0.2532116E+00 O_TOT= -0.2532116E+00 <-- DLTA
 ------------------------------------------------------------------------------
 Cycle:      5
  WF centre and spread    1  (  0.000000,  0.000000,  0.000000 )     1.92552799
  WF centre and spread    2  ( -0.000002, -0.000002, -0.000013 )     4.63916294
  WF centre and spread    3  ( -0.000013, -0.000002, -0.000002 )     4.63916825
  WF centre and spread    4  ( -0.000002, -0.000013, -0.000002 )     4.63916825
  WF centre and spread    5  (  0.000000,  0.000000,  0.000000 )     0.77710011
  WF centre and spread    6  ( -0.000000,  0.000000, -0.000000 )     0.75973699
  WF centre and spread    7  (  0.000000, -0.000000, -0.000000 )     0.75973699
  WF centre and spread    8  (  0.000000,  0.000000,  0.000000 )     0.77709745
  WF centre and spread    9  ( -0.000000, -0.000000,  0.000000 )     0.75973723
  WF centre and spread   10  (  0.000000, -1.972000, -1.972000 )     1.92552799
  WF centre and spread   11  ( -0.000002, -1.972002, -1.972013 )     4.63916294
  WF centre and spread   12  ( -0.000013, -1.972002, -1.972002 )     4.63916825
  WF centre and spread   13  ( -0.000002, -1.972013, -1.972002 )     4.63916825
  WF centre and spread   14  (  0.000000, -1.972000, -1.972000 )     0.77710011
  WF centre and spread   15  ( -0.000000, -1.972000, -1.972000 )     0.75973699
  WF centre and spread   16  (  0.000000, -1.972000, -1.972000 )     0.75973699
  WF centre and spread   17  (  0.000000, -1.972000, -1.972000 )     0.77709745
  WF centre and spread   18  ( -0.000000, -1.972000, -1.972000 )     0.75973723
  WF centre and spread   19  ( -1.972000,  0.000000, -1.972000 )     1.92552799
  WF centre and spread   20  ( -1.972002, -0.000002, -1.972013 )     4.63916294
  WF centre and spread   21  ( -1.972013, -0.000002, -1.972002 )     4.63916825
  WF centre and spread   22  ( -1.972002, -0.000013, -1.972002 )     4.63916825
  WF centre and spread   23  ( -1.972000,  0.000000, -1.972000 )     0.77710011
  WF centre and spread   24  ( -1.972000,  0.000000, -1.972000 )     0.75973699
  WF centre and spread   25  ( -1.972000, -0.000000, -1.972000 )     0.75973699
  WF centre and spread   26  ( -1.972000,  0.000000, -1.972000 )     0.77709745
  WF centre and spread   27  ( -1.972000, -0.000000, -1.972000 )     0.75973723
  WF centre and spread   28  ( -1.972000, -1.972000,  0.000000 )     1.92552799
  WF centre and spread   29  ( -1.972002, -1.972002, -0.000013 )     4.63916294
  WF centre and spread   30  ( -1.972013, -1.972002, -0.000002 )     4.63916825
  WF centre and spread   31  ( -1.972002, -1.972013, -0.000002 )     4.63916825
  WF centre and spread   32  ( -1.972000, -1.972000,  0.000000 )     0.77710011
  WF centre and spread   33  ( -1.972000, -1.972000, -0.000000 )     0.75973699
  WF centre and spread   34  ( -1.972000, -1.972000, -0.000000 )     0.75973699
  WF centre and spread   35  ( -1.972000, -1.972000,  0.000000 )     0.77709745
  WF centre and spread   36  ( -1.972000, -1.972000,  0.000000 )     0.75973723
  Sum of centres and spreads (-35.496065,-35.496065,-35.496065 )    78.70574478
 
      5    -0.147E+00     0.3238848770       78.7057447836      17.36  <-- CONV
        O_D=      0.0000000 O_OD=     29.7871071 O_TOT=     78.7057448 <-- SPRD
 Delta: O_D=  0.1120606E-08 O_OD= -0.1465220E+00 O_TOT= -0.1465220E+00 <-- DLTA
 ------------------------------------------------------------------------------
 Cycle:      6
  WF centre and spread    1  (  0.000001,  0.000001,  0.000001 )     1.90399053
  WF centre and spread    2  ( -0.000002, -0.000002, -0.000014 )     4.63838145
  WF centre and spread    3  ( -0.000014, -0.000002, -0.000002 )     4.63836306
  WF centre and spread    4  ( -0.000002, -0.000014, -0.000002 )     4.63836306
  WF centre and spread    5  (  0.000000,  0.000000,  0.000000 )     0.77654194
  WF centre and spread    6  ( -0.000000,  0.000000, -0.000000 )     0.76120482
  WF centre and spread    7  (  0.000000, -0.000000, -0.000000 )     0.76120482
  WF centre and spread    8  (  0.000000,  0.000000,  0.000000 )     0.77654004
  WF centre and spread    9  ( -0.000000, -0.000000,  0.000000 )     0.76120467
  WF centre and spread   10  (  0.000001, -1.971999, -1.971999 )     1.90399053
  WF centre and spread   11  ( -0.000002, -1.972002, -1.972014 )     4.63838145
  WF centre and spread   12  ( -0.000014, -1.972002, -1.972002 )     4.63836306
  WF centre and spread   13  ( -0.000002, -1.972014, -1.972002 )     4.63836306
  WF centre and spread   14  (  0.000000, -1.972000, -1.972000 )     0.77654194
  WF centre and spread   15  ( -0.000000, -1.972000, -1.972000 )     0.76120482
  WF centre and spread   16  (  0.000000, -1.972000, -1.972000 )     0.76120482
  WF centre and spread   17  (  0.000000, -1.972000, -1.972000 )     0.77654004
  WF centre and spread   18  ( -0.000000, -1.972000, -1.972000 )     0.76120467
  WF centre and spread   19  ( -1.971999,  0.000001, -1.971999 )     1.90399053
  WF centre and spread   20  ( -1.972002, -0.000002, -1.972014 )     4.63838145
  WF centre and spread   21  ( -1.972014, -0.000002, -1.972002 )     4.63836306
  WF centre and spread   22  ( -1.972002, -0.000014, -1.972002 )     4.63836306
  WF centre and spread   23  ( -1.972000,  0.000000, -1.972000 )     0.77654194
  WF centre and spread   24  ( -1.972000,  0.000000, -1.972000 )     0.76120482
  WF centre and spread   25  ( -1.972000, -0.000000, -1.972000 )     0.76120482
  WF centre and spread   26  ( -1.972000,  0.000000, -1.972000 )     0.77654004
  WF centre and spread   27  ( -1.972000, -0.000000, -1.972000 )     0.76120467
  WF centre and spread   28  ( -1.971999, -1.971999,  0.000001 )     1.90399053
  WF centre and spread   29  ( -1.972002, -1.972002, -0.000014 )     4.63838145
  WF centre and spread   30  ( -1.972014, -1.972002, -0.000002 )     4.63836306
  WF centre and spread   31  ( -1.972002, -1.972014, -0.000002 )     4.63836306
  WF centre and spread   32  ( -1.972000, -1.972000,  0.000000 )     0.77654194
  WF centre and spread   33  ( -1.972000, -1.972000, -0.000000 )     0.76120482
  WF centre and spread   34  ( -1.972000, -1.972000, -0.000000 )     0.76120482
  WF centre and spread   35  ( -1.972000, -1.972000,  0.000000 )     0.77654004
  WF centre and spread   36  ( -1.972000, -1.972000,  0.000000 )     0.76120467
  Sum of centres and spreads (-35.496070,-35.496070,-35.496070 )    78.62317754
 
      6    -0.826E-01     0.2479708388       78.6231775353      17.39  <-- CONV
        O_D=      0.0000000 O_OD=     29.7045399 O_TOT=     78.6231775 <-- SPRD
 Delta: O_D=  0.1086225E-08 O_OD= -0.8256725E-01 O_TOT= -0.8256725E-01 <-- DLTA
 ------------------------------------------------------------------------------
 Cycle:      7
  WF centre and spread    1  (  0.000001,  0.000001,  0.000001 )     1.90312007
  WF centre and spread    2  ( -0.000002, -0.000002, -0.000014 )     4.63663612
  WF centre and spread    3  ( -0.000014, -0.000002, -0.000002 )     4.63661424
  WF centre and spread    4  ( -0.000002, -0.000014, -0.000002 )     4.63661424
  WF centre and spread    5  (  0.000000,  0.000000,  0.000000 )     0.77561035
  WF centre and spread    6  ( -0.000000,  0.000000, -0.000000 )     0.76138098
  WF centre and spread    7  (  0.000000, -0.000000, -0.000000 )     0.76138098
  WF centre and spread    8  (  0.000000,  0.000000,  0.000000 )     0.77560858
  WF centre and spread    9  ( -0.000000, -0.000000,  0.000000 )     0.76138075
  WF centre and spread   10  (  0.000001, -1.971999, -1.971999 )     1.90312007
  WF centre and spread   11  ( -0.000002, -1.972002, -1.972014 )     4.63663612
  WF centre and spread   12  ( -0.000014, -1.972002, -1.972002 )     4.63661424
  WF centre and spread   13  ( -0.000002, -1.972014, -1.972002 )     4.63661424
  WF centre and spread   14  (  0.000000, -1.972000, -1.972000 )     0.77561035
  WF centre and spread   15  ( -0.000000, -1.972000, -1.972000 )     0.76138098
  WF centre and spread   16  (  0.000000, -1.972000, -1.972000 )     0.76138098
  WF centre and spread   17  (  0.000000, -1.972000, -1.972000 )     0.77560858
  WF centre and spread   18  ( -0.000000, -1.972000, -1.972000 )     0.76138075
  WF centre and spread   19  ( -1.971999,  0.000001, -1.971999 )     1.90312007
  WF centre and spread   20  ( -1.972002, -0.000002, -1.972014 )     4.63663612
  WF centre and spread   21  ( -1.972014, -0.000002, -1.972002 )     4.63661424
  WF centre and spread   22  ( -1.972002, -0.000014, -1.972002 )     4.63661424
  WF centre and spread   23  ( -1.972000,  0.000000, -1.972000 )     0.77561035
  WF centre and spread   24  ( -1.972000,  0.000000, -1.972000 )     0.76138098
  WF centre and spread   25  ( -1.972000, -0.000000, -1.972000 )     0.76138098
  WF centre and spread   26  ( -1.972000,  0.000000, -1.972000 )     0.77560858
  WF centre and spread   27  ( -1.972000, -0.000000, -1.972000 )     0.76138075
  WF centre and spread   28  ( -1.971999, -1.971999,  0.000001 )     1.90312007
  WF centre and spread   29  ( -1.972002, -1.972002, -0.000014 )     4.63663612
  WF centre and spread   30  ( -1.972014, -1.972002, -0.000002 )     4.63661424
  WF centre and spread   31  ( -1.972002, -1.972014, -0.000002 )     4.63661424
  WF centre and spread   32  ( -1.972000, -1.972000,  0.000000 )     0.77561035
  WF centre and spread   33  ( -1.972000, -1.972000, -0.000000 )     0.76138098
  WF centre and spread   34  ( -1.972000, -1.972000, -0.000000 )     0.76138098
  WF centre and spread   35  ( -1.972000, -1.972000,  0.000000 )     0.77560858
  WF centre and spread   36  ( -1.972000, -1.972000,  0.000000 )     0.76138075
  Sum of centres and spreads (-35.496071,-35.496071,-35.496071 )    78.59338526
 
      7    -0.298E-01     0.1867447861       78.5933852568      17.42  <-- CONV
        O_D=      0.0000000 O_OD=     29.6747476 O_TOT=     78.5933853 <-- SPRD
 Delta: O_D=  0.6286756E-10 O_OD= -0.2979228E-01 O_TOT= -0.2979228E-01 <-- DLTA
 ------------------------------------------------------------------------------
 Cycle:      8
  WF centre and spread    1  (  0.000001,  0.000001,  0.000001 )     1.90199033
  WF centre and spread    2  ( -0.000002, -0.000002, -0.000015 )     4.63457836
  WF centre and spread    3  ( -0.000015, -0.000002, -0.000002 )     4.63454809
  WF centre and spread    4  ( -0.000002, -0.000015, -0.000002 )     4.63454809
  WF centre and spread    5  (  0.000000,  0.000000,  0.000000 )     0.77539975
  WF centre and spread    6  ( -0.000000,  0.000000, -0.000000 )     0.76202160
  WF centre and spread    7  (  0.000000, -0.000000, -0.000000 )     0.76202160
  WF centre and spread    8  (  0.000000,  0.000000,  0.000000 )     0.77539839
  WF centre and spread    9  ( -0.000000, -0.000000,  0.000000 )     0.76202122
  WF centre and spread   10  (  0.000001, -1.971999, -1.971999 )     1.90199033
  WF centre and spread   11  ( -0.000002, -1.972002, -1.972015 )     4.63457836
  WF centre and spread   12  ( -0.000015, -1.972002, -1.972002 )     4.63454809
  WF centre and spread   13  ( -0.000002, -1.972015, -1.972002 )     4.63454809
  WF centre and spread   14  (  0.000000, -1.972000, -1.972000 )     0.77539975
  WF centre and spread   15  ( -0.000000, -1.972000, -1.972000 )     0.76202160
  WF centre and spread   16  (  0.000000, -1.972000, -1.972000 )     0.76202160
  WF centre and spread   17  (  0.000000, -1.972000, -1.972000 )     0.77539839
  WF centre and spread   18  ( -0.000000, -1.972000, -1.972000 )     0.76202122
  WF centre and spread   19  ( -1.971999,  0.000001, -1.971999 )     1.90199033
  WF centre and spread   20  ( -1.972002, -0.000002, -1.972015 )     4.63457836
  WF centre and spread   21  ( -1.972015, -0.000002, -1.972002 )     4.63454809
  WF centre and spread   22  ( -1.972002, -0.000015, -1.972002 )     4.63454809
  WF centre and spread   23  ( -1.972000,  0.000000, -1.972000 )     0.77539975
  WF centre and spread   24  ( -1.972000,  0.000000, -1.972000 )     0.76202160
  WF centre and spread   25  ( -1.972000, -0.000000, -1.972000 )     0.76202160
  WF centre and spread   26  ( -1.972000,  0.000000, -1.972000 )     0.77539839
  WF centre and spread   27  ( -1.972000, -0.000000, -1.972000 )     0.76202122
  WF centre and spread   28  ( -1.971999, -1.971999,  0.000001 )     1.90199033
  WF centre and spread   29  ( -1.972002, -1.972002, -0.000015 )     4.63457836
  WF centre and spread   30  ( -1.972015, -1.972002, -0.000002 )     4.63454809
  WF centre and spread   31  ( -1.972002, -1.972015, -0.000002 )     4.63454809
  WF centre and spread   32  ( -1.972000, -1.972000,  0.000000 )     0.77539975
  WF centre and spread   33  ( -1.972000, -1.972000, -0.000000 )     0.76202160
  WF centre and spread   34  ( -1.972000, -1.972000, -0.000000 )     0.76202160
  WF centre and spread   35  ( -1.972000, -1.972000,  0.000000 )     0.77539839
  WF centre and spread   36  ( -1.972000, -1.972000,  0.000000 )     0.76202122
  Sum of centres and spreads (-35.496072,-35.496072,-35.496072 )    78.57010961
 
      8    -0.233E-01     0.1256502098       78.5701096123      17.45  <-- CONV
        O_D=      0.0000000 O_OD=     29.6514719 O_TOT=     78.5701096 <-- SPRD
 Delta: O_D=  0.4621709E-09 O_OD= -0.2327565E-01 O_TOT= -0.2327564E-01 <-- DLTA
 ------------------------------------------------------------------------------
 Cycle:      9
  WF centre and spread    1  (  0.000001,  0.000001,  0.000001 )     1.90103856
  WF centre and spread    2  ( -0.000002, -0.000002, -0.000016 )     4.63247608
  WF centre and spread    3  ( -0.000016, -0.000002, -0.000002 )     4.63243728
  WF centre and spread    4  ( -0.000002, -0.000016, -0.000002 )     4.63243728
  WF centre and spread    5  (  0.000000,  0.000000,  0.000000 )     0.77582548
  WF centre and spread    6  ( -0.000000,  0.000000, -0.000000 )     0.76293261
  WF centre and spread    7  (  0.000000, -0.000000, -0.000000 )     0.76293261
  WF centre and spread    8  (  0.000000,  0.000000,  0.000000 )     0.77582474
  WF centre and spread    9  ( -0.000000, -0.000000,  0.000000 )     0.76293216
  WF centre and spread   10  (  0.000001, -1.971999, -1.971999 )     1.90103856
  WF centre and spread   11  ( -0.000002, -1.972002, -1.972016 )     4.63247608
  WF centre and spread   12  ( -0.000016, -1.972002, -1.972002 )     4.63243728
  WF centre and spread   13  ( -0.000002, -1.972016, -1.972002 )     4.63243728
  WF centre and spread   14  (  0.000000, -1.972000, -1.972000 )     0.77582548
  WF centre and spread   15  ( -0.000000, -1.972000, -1.972000 )     0.76293261
  WF centre and spread   16  (  0.000000, -1.972000, -1.972000 )     0.76293261
  WF centre and spread   17  (  0.000000, -1.972000, -1.972000 )     0.77582474
  WF centre and spread   18  ( -0.000000, -1.972000, -1.972000 )     0.76293216
  WF centre and spread   19  ( -1.971999,  0.000001, -1.971999 )     1.90103856
  WF centre and spread   20  ( -1.972002, -0.000002, -1.972016 )     4.63247608
  WF centre and spread   21  ( -1.972016, -0.000002, -1.972002 )     4.63243728
  WF centre and spread   22  ( -1.972002, -0.000016, -1.972002 )     4.63243728
  WF centre and spread   23  ( -1.972000,  0.000000, -1.972000 )     0.77582548
  WF centre and spread   24  ( -1.972000,  0.000000, -1.972000 )     0.76293261
  WF centre and spread   25  ( -1.972000, -0.000000, -1.972000 )     0.76293261
  WF centre and spread   26  ( -1.972000,  0.000000, -1.972000 )     0.77582474
  WF centre and spread   27  ( -1.972000, -0.000000, -1.972000 )     0.76293216
  WF centre and spread   28  ( -1.971999, -1.971999,  0.000001 )     1.90103856
  WF centre and spread   29  ( -1.972002, -1.972002, -0.000016 )     4.63247608
  WF centre and spread   30  ( -1.972016, -1.972002, -0.000002 )     4.63243728
  WF centre and spread   31  ( -1.972002, -1.972016, -0.000002 )     4.63243728
  WF centre and spread   32  ( -1.972000, -1.972000,  0.000000 )     0.77582548
  WF centre and spread   33  ( -1.972000, -1.972000, -0.000000 )     0.76293261
  WF centre and spread   34  ( -1.972000, -1.972000, -0.000000 )     0.76293261
  WF centre and spread   35  ( -1.972000, -1.972000,  0.000000 )     0.77582474
  WF centre and spread   36  ( -1.972000, -1.972000,  0.000000 )     0.76293216
  Sum of centres and spreads (-35.496074,-35.496074,-35.496074 )    78.55534719
 
      9    -0.148E-01     0.1020179245       78.5553471861      17.48  <-- CONV
        O_D=      0.0000000 O_OD=     29.6367095 O_TOT=     78.5553472 <-- SPRD
 Delta: O_D=  0.5076304E-09 O_OD= -0.1476243E-01 O_TOT= -0.1476243E-01 <-- DLTA
 ------------------------------------------------------------------------------
 Cycle:     10
  WF centre and spread    1  (  0.000002,  0.000002,  0.000002 )     1.90011519
  WF centre and spread    2  ( -0.000002, -0.000002, -0.000016 )     4.63074230
  WF centre and spread    3  ( -0.000016, -0.000002, -0.000002 )     4.63069964
  WF centre and spread    4  ( -0.000002, -0.000016, -0.000002 )     4.63069964
  WF centre and spread    5  (  0.000000,  0.000000,  0.000000 )     0.77646000
  WF centre and spread    6  ( -0.000000,  0.000000, -0.000000 )     0.76386416
  WF centre and spread    7  (  0.000000, -0.000000, -0.000000 )     0.76386416
  WF centre and spread    8  (  0.000000,  0.000000,  0.000000 )     0.77645979
  WF centre and spread    9  ( -0.000000, -0.000000,  0.000000 )     0.76386371
  WF centre and spread   10  (  0.000002, -1.971998, -1.971998 )     1.90011519
  WF centre and spread   11  ( -0.000002, -1.972002, -1.972016 )     4.63074230
  WF centre and spread   12  ( -0.000016, -1.972002, -1.972002 )     4.63069964
  WF centre and spread   13  ( -0.000002, -1.972016, -1.972002 )     4.63069964
  WF centre and spread   14  (  0.000000, -1.972000, -1.972000 )     0.77646000
  WF centre and spread   15  ( -0.000000, -1.972000, -1.972000 )     0.76386416
  WF centre and spread   16  (  0.000000, -1.972000, -1.972000 )     0.76386416
  WF centre and spread   17  (  0.000000, -1.972000, -1.972000 )     0.77645979
  WF centre and spread   18  ( -0.000000, -1.972000, -1.972000 )     0.76386371
  WF centre and spread   19  ( -1.971998,  0.000002, -1.971998 )     1.90011519
  WF centre and spread   20  ( -1.972002, -0.000002, -1.972016 )     4.63074230
  WF centre and spread   21  ( -1.972016, -0.000002, -1.972002 )     4.63069964
  WF centre and spread   22  ( -1.972002, -0.000016, -1.972002 )     4.63069964
  WF centre and spread   23  ( -1.972000,  0.000000, -1.972000 )     0.77646000
  WF centre and spread   24  ( -1.972000,  0.000000, -1.972000 )     0.76386416
  WF centre and spread   25  ( -1.972000, -0.000000, -1.972000 )     0.76386416
  WF centre and spread   26  ( -1.972000,  0.000000, -1.972000 )     0.77645979
  WF centre and spread   27  ( -1.972000, -0.000000, -1.972000 )     0.76386371
  WF centre and spread   28  ( -1.971998, -1.971998,  0.000002 )     1.90011519
  WF centre and spread   29  ( -1.972002, -1.972002, -0.000016 )     4.63074230
  WF centre and spread   30  ( -1.972016, -1.972002, -0.000002 )     4.63069964
  WF centre and spread   31  ( -1.972002, -1.972016, -0.000002 )     4.63069964
  WF centre and spread   32  ( -1.972000, -1.972000,  0.000000 )     0.77646000
  WF centre and spread   33  ( -1.972000, -1.972000, -0.000000 )     0.76386416
  WF centre and spread   34  ( -1.972000, -1.972000, -0.000000 )     0.76386416
  WF centre and spread   35  ( -1.972000, -1.972000,  0.000000 )     0.77645979
  WF centre and spread   36  ( -1.972000, -1.972000,  0.000000 )     0.76386371
  Sum of centres and spreads (-35.496076,-35.496076,-35.496076 )    78.54707439
 
     10    -0.827E-02     0.0773180378       78.5470743851      17.51  <-- CONV
        O_D=      0.0000000 O_OD=     29.6284367 O_TOT=     78.5470744 <-- SPRD
 Delta: O_D=  0.6360664E-09 O_OD= -0.8272802E-02 O_TOT= -0.8272801E-02 <-- DLTA
 ------------------------------------------------------------------------------
 Cycle:     11
  WF centre and spread    1  (  0.000002,  0.000002,  0.000002 )     1.89879339
  WF centre and spread    2  ( -0.000002, -0.000002, -0.000017 )     4.62935216
  WF centre and spread    3  ( -0.000017, -0.000002, -0.000002 )     4.62931049
  WF centre and spread    4  ( -0.000002, -0.000017, -0.000002 )     4.62931049
  WF centre and spread    5  (  0.000000,  0.000000,  0.000000 )     0.77715636
  WF centre and spread    6  ( -0.000000,  0.000000, -0.000000 )     0.76479168
  WF centre and spread    7  (  0.000000, -0.000000, -0.000000 )     0.76479168
  WF centre and spread    8  (  0.000000,  0.000000,  0.000000 )     0.77715655
  WF centre and spread    9  ( -0.000000, -0.000000,  0.000000 )     0.76479130
  WF centre and spread   10  (  0.000002, -1.971998, -1.971998 )     1.89879339
  WF centre and spread   11  ( -0.000002, -1.972002, -1.972017 )     4.62935216
  WF centre and spread   12  ( -0.000017, -1.972002, -1.972002 )     4.62931049
  WF centre and spread   13  ( -0.000002, -1.972017, -1.972002 )     4.62931049
  WF centre and spread   14  (  0.000000, -1.972000, -1.972000 )     0.77715636
  WF centre and spread   15  ( -0.000000, -1.972000, -1.972000 )     0.76479168
  WF centre and spread   16  (  0.000000, -1.972000, -1.972000 )     0.76479168
  WF centre and spread   17  (  0.000000, -1.972000, -1.972000 )     0.77715655
  WF centre and spread   18  ( -0.000000, -1.972000, -1.972000 )     0.76479130
  WF centre and spread   19  ( -1.971998,  0.000002, -1.971998 )     1.89879339
  WF centre and spread   20  ( -1.972002, -0.000002, -1.972017 )     4.62935216
  WF centre and spread   21  ( -1.972017, -0.000002, -1.972002 )     4.62931049
  WF centre and spread   22  ( -1.972002, -0.000017, -1.972002 )     4.62931049
  WF centre and spread   23  ( -1.972000,  0.000000, -1.972000 )     0.77715636
  WF centre and spread   24  ( -1.972000,  0.000000, -1.972000 )     0.76479168
  WF centre and spread   25  ( -1.972000, -0.000000, -1.972000 )     0.76479168
  WF centre and spread   26  ( -1.972000,  0.000000, -1.972000 )     0.77715655
  WF centre and spread   27  ( -1.972000, -0.000000, -1.972000 )     0.76479130
  WF centre and spread   28  ( -1.971998, -1.971998,  0.000002 )     1.89879339
  WF centre and spread   29  ( -1.972002, -1.972002, -0.000017 )     4.62935216
  WF centre and spread   30  ( -1.972017, -1.972002, -0.000002 )     4.62931049
  WF centre and spread   31  ( -1.972002, -1.972017, -0.000002 )     4.62931049
  WF centre and spread   32  ( -1.972000, -1.972000,  0.000000 )     0.77715636
  WF centre and spread   33  ( -1.972000, -1.972000, -0.000000 )     0.76479168
  WF centre and spread   34  ( -1.972000, -1.972000, -0.000000 )     0.76479168
  WF centre and spread   35  ( -1.972000, -1.972000,  0.000000 )     0.77715655
  WF centre and spread   36  ( -1.972000, -1.972000,  0.000000 )     0.76479130
  Sum of centres and spreads (-35.496079,-35.496079,-35.496079 )    78.54181639
 
     11    -0.526E-02     0.0601865594       78.5418163888      17.53  <-- CONV
        O_D=      0.0000000 O_OD=     29.6231787 O_TOT=     78.5418164 <-- SPRD
 Delta: O_D=  0.6942516E-09 O_OD= -0.5257997E-02 O_TOT= -0.5257996E-02 <-- DLTA
 ------------------------------------------------------------------------------
 Cycle:     12
  WF centre and spread    1  (  0.000003,  0.000003,  0.000003 )     1.89700992
  WF centre and spread    2  ( -0.000002, -0.000002, -0.000018 )     4.62831177
  WF centre and spread    3  ( -0.000018, -0.000002, -0.000002 )     4.62827510
  WF centre and spread    4  ( -0.000002, -0.000018, -0.000002 )     4.62827510
  WF centre and spread    5  (  0.000000,  0.000000,  0.000001 )     0.77782543
  WF centre and spread    6  ( -0.000000,  0.000000, -0.000000 )     0.76567657
  WF centre and spread    7  (  0.000000, -0.000000, -0.000000 )     0.76567657
  WF centre and spread    8  (  0.000000,  0.000000,  0.000000 )     0.77782588
  WF centre and spread    9  ( -0.000000, -0.000000,  0.000000 )     0.76567629
  WF centre and spread   10  (  0.000003, -1.971997, -1.971997 )     1.89700992
  WF centre and spread   11  ( -0.000002, -1.972002, -1.972018 )     4.62831177
  WF centre and spread   12  ( -0.000018, -1.972002, -1.972002 )     4.62827510
  WF centre and spread   13  ( -0.000002, -1.972018, -1.972002 )     4.62827510
  WF centre and spread   14  (  0.000000, -1.972000, -1.971999 )     0.77782543
  WF centre and spread   15  ( -0.000000, -1.972000, -1.972000 )     0.76567657
  WF centre and spread   16  (  0.000000, -1.972000, -1.972000 )     0.76567657
  WF centre and spread   17  (  0.000000, -1.972000, -1.972000 )     0.77782588
  WF centre and spread   18  ( -0.000000, -1.972000, -1.972000 )     0.76567629
  WF centre and spread   19  ( -1.971997,  0.000003, -1.971997 )     1.89700992
  WF centre and spread   20  ( -1.972002, -0.000002, -1.972018 )     4.62831177
  WF centre and spread   21  ( -1.972018, -0.000002, -1.972002 )     4.62827510
  WF centre and spread   22  ( -1.972002, -0.000018, -1.972002 )     4.62827510
  WF centre and spread   23  ( -1.972000,  0.000000, -1.971999 )     0.77782543
  WF centre and spread   24  ( -1.972000,  0.000000, -1.972000 )     0.76567657
  WF centre and spread   25  ( -1.972000, -0.000000, -1.972000 )     0.76567657
  WF centre and spread   26  ( -1.972000,  0.000000, -1.972000 )     0.77782588
  WF centre and spread   27  ( -1.972000, -0.000000, -1.972000 )     0.76567629
  WF centre and spread   28  ( -1.971997, -1.971997,  0.000003 )     1.89700992
  WF centre and spread   29  ( -1.972002, -1.972002, -0.000018 )     4.62831177
  WF centre and spread   30  ( -1.972018, -1.972002, -0.000002 )     4.62827510
  WF centre and spread   31  ( -1.972002, -1.972018, -0.000002 )     4.62827510
  WF centre and spread   32  ( -1.972000, -1.972000,  0.000001 )     0.77782543
  WF centre and spread   33  ( -1.972000, -1.972000, -0.000000 )     0.76567657
  WF centre and spread   34  ( -1.972000, -1.972000, -0.000000 )     0.76567657
  WF centre and spread   35  ( -1.972000, -1.972000,  0.000000 )     0.77782588
  WF centre and spread   36  ( -1.972000, -1.972000,  0.000000 )     0.76567629
  Sum of centres and spreads (-35.496081,-35.496081,-35.496081 )    78.53821048
 
     12    -0.361E-02     0.0484194637       78.5382104807      17.56  <-- CONV
        O_D=      0.0000000 O_OD=     29.6195728 O_TOT=     78.5382105 <-- SPRD
 Delta: O_D=  0.1008049E-08 O_OD= -0.3605909E-02 O_TOT= -0.3605908E-02 <-- DLTA
 ------------------------------------------------------------------------------
 Cycle:     13
  WF centre and spread    1  (  0.000003,  0.000003,  0.000003 )     1.89663958
  WF centre and spread    2  ( -0.000003, -0.000003, -0.000019 )     4.62825200
  WF centre and spread    3  ( -0.000019, -0.000003, -0.000003 )     4.62821731
  WF centre and spread    4  ( -0.000003, -0.000019, -0.000003 )     4.62821731
  WF centre and spread    5  (  0.000000,  0.000000,  0.000001 )     0.77781159
  WF centre and spread    6  ( -0.000000,  0.000000, -0.000000 )     0.76573618
  WF centre and spread    7  (  0.000000, -0.000000, -0.000000 )     0.76573618
  WF centre and spread    8  (  0.000000,  0.000000,  0.000000 )     0.77781198
  WF centre and spread    9  ( -0.000000, -0.000000,  0.000000 )     0.76573592
  WF centre and spread   10  (  0.000003, -1.971997, -1.971997 )     1.89663958
  WF centre and spread   11  ( -0.000003, -1.972003, -1.972019 )     4.62825200
  WF centre and spread   12  ( -0.000019, -1.972003, -1.972003 )     4.62821731
  WF centre and spread   13  ( -0.000003, -1.972019, -1.972003 )     4.62821731
  WF centre and spread   14  (  0.000000, -1.972000, -1.971999 )     0.77781159
  WF centre and spread   15  ( -0.000000, -1.972000, -1.972000 )     0.76573618
  WF centre and spread   16  (  0.000000, -1.972000, -1.972000 )     0.76573618
  WF centre and spread   17  (  0.000000, -1.972000, -1.972000 )     0.77781198
  WF centre and spread   18  ( -0.000000, -1.972000, -1.972000 )     0.76573592
  WF centre and spread   19  ( -1.971997,  0.000003, -1.971997 )     1.89663958
  WF centre and spread   20  ( -1.972003, -0.000003, -1.972019 )     4.62825200
  WF centre and spread   21  ( -1.972019, -0.000003, -1.972003 )     4.62821731
  WF centre and spread   22  ( -1.972003, -0.000019, -1.972003 )     4.62821731
  WF centre and spread   23  ( -1.972000,  0.000000, -1.971999 )     0.77781159
  WF centre and spread   24  ( -1.972000,  0.000000, -1.972000 )     0.76573618
  WF centre and spread   25  ( -1.972000, -0.000000, -1.972000 )     0.76573618
  WF centre and spread   26  ( -1.972000,  0.000000, -1.972000 )     0.77781198
  WF centre and spread   27  ( -1.972000, -0.000000, -1.972000 )     0.76573592
  WF centre and spread   28  ( -1.971997, -1.971997,  0.000003 )     1.89663958
  WF centre and spread   29  ( -1.972003, -1.972003, -0.000019 )     4.62825200
  WF centre and spread   30  ( -1.972019, -1.972003, -0.000003 )     4.62821731
  WF centre and spread   31  ( -1.972003, -1.972019, -0.000003 )     4.62821731
  WF centre and spread   32  ( -1.972000, -1.972000,  0.000001 )     0.77781159
  WF centre and spread   33  ( -1.972000, -1.972000, -0.000000 )     0.76573618
[...]
  WF centre and spread   17  (  0.000960, -1.971040, -1.972000 )     0.77981570
  WF centre and spread   18  (  0.000001, -1.971999, -1.971996 )     0.76877646
  WF centre and spread   19  ( -1.960937,  0.011062, -1.960906 )     1.89098979
  WF centre and spread   20  ( -1.972149, -0.000149, -1.986090 )     4.62498965
  WF centre and spread   21  ( -1.985963, -0.000149, -1.972150 )     4.62495095
  WF centre and spread   22  ( -1.972149, -0.013963, -1.972150 )     4.62495097
  WF centre and spread   23  ( -1.971702,  0.000298, -1.970661 )     0.77981679
  WF centre and spread   24  ( -1.971999,  0.000004, -1.971999 )     0.76877671
  WF centre and spread   25  ( -1.971996,  0.000001, -1.971999 )     0.76877671
  WF centre and spread   26  ( -1.971040,  0.000960, -1.972000 )     0.77981570
  WF centre and spread   27  ( -1.971999,  0.000001, -1.971996 )     0.76877646
  WF centre and spread   28  ( -1.960937, -1.960937,  0.011094 )     1.89098979
  WF centre and spread   29  ( -1.972149, -1.972149, -0.014089 )     4.62498968
  WF centre and spread   30  ( -1.985963, -1.972149, -0.000150 )     4.62495095
  WF centre and spread   31  ( -1.972149, -1.985963, -0.000150 )     4.62495093
  WF centre and spread   32  ( -1.971702, -1.971702,  0.001339 )     0.77981679
  WF centre and spread   33  ( -1.971999, -1.971996,  0.000001 )     0.76877671
  WF centre and spread   34  ( -1.971996, -1.971999,  0.000001 )     0.76877671
  WF centre and spread   35  ( -1.971040, -1.971040,  0.000000 )     0.77981570
  WF centre and spread   36  ( -1.971999, -1.971999,  0.000004 )     0.76877646
  Sum of centres and spreads (-35.503744,-35.503744,-35.503804 )    78.52737493
 
     96    -0.510E-03     0.0147475559       78.5273749341      23.40  <-- CONV
        O_D=      0.0001391 O_OD=     29.6085982 O_TOT=     78.5273749 <-- SPRD
 Delta: O_D=  0.6331527E-04 O_OD= -0.5733269E-03 O_TOT= -0.5100117E-03 <-- DLTA
 ------------------------------------------------------------------------------
 Cycle:     97
  WF centre and spread    1  (  0.011230,  0.011231,  0.011263 )     1.89085920
  WF centre and spread    2  ( -0.000152, -0.000152, -0.014303 )     4.62504388
  WF centre and spread    3  ( -0.014174, -0.000152, -0.000153 )     4.62500805
  WF centre and spread    4  ( -0.000152, -0.014175, -0.000153 )     4.62500802
  WF centre and spread    5  (  0.000303,  0.000303,  0.001360 )     0.77978238
  WF centre and spread    6  (  0.000001,  0.000004,  0.000001 )     0.76872810
  WF centre and spread    7  (  0.000004,  0.000001,  0.000001 )     0.76872810
  WF centre and spread    8  (  0.000974,  0.000974,  0.000000 )     0.77978119
  WF centre and spread    9  (  0.000001,  0.000001,  0.000004 )     0.76872785
  WF centre and spread   10  (  0.011230, -1.960769, -1.960737 )     1.89085921
  WF centre and spread   11  ( -0.000152, -1.972152, -1.986304 )     4.62504385
  WF centre and spread   12  ( -0.014174, -1.972152, -1.972153 )     4.62500805
  WF centre and spread   13  ( -0.000152, -1.986176, -1.972153 )     4.62500799
  WF centre and spread   14  (  0.000303, -1.971697, -1.970640 )     0.77978238
  WF centre and spread   15  (  0.000001, -1.971996, -1.971999 )     0.76872810
  WF centre and spread   16  (  0.000004, -1.971999, -1.971999 )     0.76872810
  WF centre and spread   17  (  0.000974, -1.971026, -1.972000 )     0.77978120
  WF centre and spread   18  (  0.000001, -1.971999, -1.971996 )     0.76872785
  WF centre and spread   19  ( -1.960769,  0.011231, -1.960737 )     1.89085921
  WF centre and spread   20  ( -1.972152, -0.000152, -1.986304 )     4.62504385
  WF centre and spread   21  ( -1.986175, -0.000152, -1.972153 )     4.62500801
  WF centre and spread   22  ( -1.972152, -0.014175, -1.972153 )     4.62500802
  WF centre and spread   23  ( -1.971697,  0.000303, -1.970640 )     0.77978238
  WF centre and spread   24  ( -1.971999,  0.000004, -1.971999 )     0.76872810
  WF centre and spread   25  ( -1.971996,  0.000001, -1.971999 )     0.76872810
  WF centre and spread   26  ( -1.971026,  0.000974, -1.972000 )     0.77978120
  WF centre and spread   27  ( -1.971999,  0.000001, -1.971996 )     0.76872785
  WF centre and spread   28  ( -1.960769, -1.960769,  0.011263 )     1.89085921
  WF centre and spread   29  ( -1.972152, -1.972152, -0.014303 )     4.62504388
  WF centre and spread   30  ( -1.986175, -1.972152, -0.000153 )     4.62500801
  WF centre and spread   31  ( -1.972152, -1.986176, -0.000153 )     4.62500799
  WF centre and spread   32  ( -1.971697, -1.971697,  0.001360 )     0.77978238
  WF centre and spread   33  ( -1.971999, -1.971996,  0.000001 )     0.76872810
  WF centre and spread   34  ( -1.971996, -1.971999,  0.000001 )     0.76872810
  WF centre and spread   35  ( -1.971026, -1.971026,  0.000000 )     0.77978120
  WF centre and spread   36  ( -1.971999, -1.971999,  0.000004 )     0.76872785
  Sum of centres and spreads (-35.503860,-35.503860,-35.503922 )    78.52666690
 
     97    -0.708E-03     0.0278731783       78.5266669026      23.42  <-- CONV
        O_D=      0.0001557 O_OD=     29.6078735 O_TOT=     78.5266669 <-- SPRD
 Delta: O_D=  0.1668817E-04 O_OD= -0.7247197E-03 O_TOT= -0.7080315E-03 <-- DLTA
 ------------------------------------------------------------------------------
 Cycle:     98
  WF centre and spread    1  (  0.011706,  0.011707,  0.011740 )     1.89052311
  WF centre and spread    2  ( -0.000158, -0.000158, -0.014909 )     4.62522976
  WF centre and spread    3  ( -0.014775, -0.000158, -0.000159 )     4.62520165
  WF centre and spread    4  ( -0.000158, -0.014775, -0.000159 )     4.62520163
  WF centre and spread    5  (  0.000316,  0.000316,  0.001418 )     0.77973059
  WF centre and spread    6  (  0.000001,  0.000004,  0.000001 )     0.76862383
  WF centre and spread    7  (  0.000004,  0.000001,  0.000001 )     0.76862383
  WF centre and spread    8  (  0.001016,  0.001016,  0.000001 )     0.77972916
  WF centre and spread    9  (  0.000001,  0.000001,  0.000004 )     0.76862361
  WF centre and spread   10  (  0.011706, -1.960293, -1.960260 )     1.89052311
  WF centre and spread   11  ( -0.000158, -1.972158, -1.986910 )     4.62522972
  WF centre and spread   12  ( -0.014775, -1.972158, -1.972159 )     4.62520165
  WF centre and spread   13  ( -0.000158, -1.986776, -1.972159 )     4.62520159
  WF centre and spread   14  (  0.000316, -1.971684, -1.970582 )     0.77973059
  WF centre and spread   15  (  0.000001, -1.971996, -1.971999 )     0.76862383
  WF centre and spread   16  (  0.000004, -1.971999, -1.971999 )     0.76862383
  WF centre and spread   17  (  0.001016, -1.970984, -1.971999 )     0.77972916
  WF centre and spread   18  (  0.000001, -1.971999, -1.971996 )     0.76862361
  WF centre and spread   19  ( -1.960293,  0.011707, -1.960260 )     1.89052311
  WF centre and spread   20  ( -1.972158, -0.000158, -1.986910 )     4.62522972
  WF centre and spread   21  ( -1.986776, -0.000158, -1.972159 )     4.62520161
  WF centre and spread   22  ( -1.972158, -0.014775, -1.972159 )     4.62520163
  WF centre and spread   23  ( -1.971684,  0.000316, -1.970582 )     0.77973059
  WF centre and spread   24  ( -1.971999,  0.000004, -1.971999 )     0.76862383
  WF centre and spread   25  ( -1.971996,  0.000001, -1.971999 )     0.76862383
  WF centre and spread   26  ( -1.970984,  0.001016, -1.971999 )     0.77972916
  WF centre and spread   27  ( -1.971999,  0.000001, -1.971996 )     0.76862361
  WF centre and spread   28  ( -1.960293, -1.960293,  0.011740 )     1.89052311
  WF centre and spread   29  ( -1.972158, -1.972158, -0.014909 )     4.62522976
  WF centre and spread   30  ( -1.986776, -1.972158, -0.000159 )     4.62520161
  WF centre and spread   31  ( -1.972158, -1.986776, -0.000159 )     4.62520159
  WF centre and spread   32  ( -1.971684, -1.971684,  0.001418 )     0.77973059
  WF centre and spread   33  ( -1.971999, -1.971996,  0.000001 )     0.76862383
  WF centre and spread   34  ( -1.971996, -1.971999,  0.000001 )     0.76862383
  WF centre and spread   35  ( -1.970984, -1.970984,  0.000001 )     0.77972917
  WF centre and spread   36  ( -1.971999, -1.971999,  0.000004 )     0.76862361
  Sum of centres and spreads (-35.504191,-35.504191,-35.504255 )    78.52594842
 
     98    -0.718E-03     0.0209989671       78.5259484226      23.45  <-- CONV
        O_D=      0.0001719 O_OD=     29.6071389 O_TOT=     78.5259484 <-- SPRD
 Delta: O_D=  0.1615704E-04 O_OD= -0.7346371E-03 O_TOT= -0.7184800E-03 <-- DLTA
 ------------------------------------------------------------------------------
 Cycle:     99
  WF centre and spread    1  (  0.012422,  0.012422,  0.012457 )     1.89005323
  WF centre and spread    2  ( -0.000168, -0.000168, -0.015819 )     4.62547168
  WF centre and spread    3  ( -0.015677, -0.000168, -0.000169 )     4.62545359
  WF centre and spread    4  ( -0.000168, -0.015677, -0.000169 )     4.62545357
  WF centre and spread    5  (  0.000335,  0.000335,  0.001505 )     0.77966262
  WF centre and spread    6  (  0.000001,  0.000004,  0.000001 )     0.76852279
  WF centre and spread    7  (  0.000004,  0.000001,  0.000001 )     0.76852279
  WF centre and spread    8  (  0.001078,  0.001078,  0.000001 )     0.77966089
  WF centre and spread    9  (  0.000001,  0.000001,  0.000004 )     0.76852265
  WF centre and spread   10  (  0.012422, -1.959577, -1.959542 )     1.89005323
  WF centre and spread   11  ( -0.000168, -1.972168, -1.987820 )     4.62547164
  WF centre and spread   12  ( -0.015677, -1.972168, -1.972169 )     4.62545359
  WF centre and spread   13  ( -0.000168, -1.987678, -1.972169 )     4.62545352
  WF centre and spread   14  (  0.000335, -1.971665, -1.970495 )     0.77966262
  WF centre and spread   15  (  0.000001, -1.971996, -1.971999 )     0.76852279
  WF centre and spread   16  (  0.000004, -1.971999, -1.971999 )     0.76852279
  WF centre and spread   17  (  0.001078, -1.970922, -1.971999 )     0.77966089
  WF centre and spread   18  (  0.000001, -1.971999, -1.971996 )     0.76852265
  WF centre and spread   19  ( -1.959578,  0.012422, -1.959542 )     1.89005323
  WF centre and spread   20  ( -1.972168, -0.000168, -1.987820 )     4.62547164
  WF centre and spread   21  ( -1.987678, -0.000168, -1.972169 )     4.62545355
  WF centre and spread   22  ( -1.972168, -0.015677, -1.972169 )     4.62545357
  WF centre and spread   23  ( -1.971665,  0.000335, -1.970495 )     0.77966262
  WF centre and spread   24  ( -1.971999,  0.000004, -1.971999 )     0.76852279
  WF centre and spread   25  ( -1.971996,  0.000001, -1.971999 )     0.76852279
  WF centre and spread   26  ( -1.970922,  0.001078, -1.971999 )     0.77966089
  WF centre and spread   27  ( -1.971999,  0.000001, -1.971996 )     0.76852265
  WF centre and spread   28  ( -1.959578, -1.959577,  0.012457 )     1.89005323
  WF centre and spread   29  ( -1.972168, -1.972168, -0.015819 )     4.62547168
  WF centre and spread   30  ( -1.987678, -1.972168, -0.000169 )     4.62545355
  WF centre and spread   31  ( -1.972168, -1.987678, -0.000169 )     4.62545352
  WF centre and spread   32  ( -1.971665, -1.971665,  0.001505 )     0.77966262
  WF centre and spread   33  ( -1.971999, -1.971996,  0.000001 )     0.76852279
  WF centre and spread   34  ( -1.971996, -1.971999,  0.000001 )     0.76852279
  WF centre and spread   35  ( -1.970922, -1.970922,  0.000001 )     0.77966089
  WF centre and spread   36  ( -1.971999, -1.971999,  0.000004 )     0.76852265
  Sum of centres and spreads (-35.504687,-35.504687,-35.504755 )    78.52529496
 
     99    -0.653E-03     0.0212643435       78.5252949579      23.48  <-- CONV
        O_D=      0.0001636 O_OD=     29.6064937 O_TOT=     78.5252950 <-- SPRD
 Delta: O_D= -0.8343709E-05 O_OD= -0.6451209E-03 O_TOT= -0.6534646E-03 <-- DLTA
 ------------------------------------------------------------------------------
 Cycle:    100
  WF centre and spread    1  (  0.013390,  0.013390,  0.013428 )     1.88955397
  WF centre and spread    2  ( -0.000181, -0.000181, -0.017051 )     4.62569909
  WF centre and spread    3  ( -0.016897, -0.000181, -0.000182 )     4.62569080
  WF centre and spread    4  ( -0.000181, -0.016897, -0.000182 )     4.62569076
  WF centre and spread    5  (  0.000361,  0.000361,  0.001623 )     0.77959215
  WF centre and spread    6  (  0.000001,  0.000005,  0.000001 )     0.76845337
  WF centre and spread    7  (  0.000005,  0.000001,  0.000001 )     0.76845337
  WF centre and spread    8  (  0.001162,  0.001162,  0.000001 )     0.77959013
  WF centre and spread    9  (  0.000001,  0.000001,  0.000005 )     0.76845329
  WF centre and spread   10  (  0.013390, -1.958609, -1.958571 )     1.88955398
  WF centre and spread   11  ( -0.000181, -1.972181, -1.989051 )     4.62569904
  WF centre and spread   12  ( -0.016897, -1.972181, -1.972182 )     4.62569079
  WF centre and spread   13  ( -0.000181, -1.988898, -1.972182 )     4.62569071
  WF centre and spread   14  (  0.000361, -1.971639, -1.970377 )     0.77959216
  WF centre and spread   15  (  0.000001, -1.971995, -1.971999 )     0.76845337
  WF centre and spread   16  (  0.000005, -1.971999, -1.971999 )     0.76845337
  WF centre and spread   17  (  0.001162, -1.970837, -1.971999 )     0.77959013
  WF centre and spread   18  (  0.000001, -1.971999, -1.971995 )     0.76845329
  WF centre and spread   19  ( -1.958610,  0.013390, -1.958571 )     1.88955398
  WF centre and spread   20  ( -1.972181, -0.000181, -1.989051 )     4.62569904
  WF centre and spread   21  ( -1.988898, -0.000181, -1.972182 )     4.62569074
  WF centre and spread   22  ( -1.972181, -0.016897, -1.972182 )     4.62569076
  WF centre and spread   23  ( -1.971639,  0.000361, -1.970377 )     0.77959216
  WF centre and spread   24  ( -1.971999,  0.000005, -1.971999 )     0.76845337
  WF centre and spread   25  ( -1.971995,  0.000001, -1.971999 )     0.76845337
  WF centre and spread   26  ( -1.970838,  0.001162, -1.971999 )     0.77959013
  WF centre and spread   27  ( -1.971999,  0.000001, -1.971995 )     0.76845329
  WF centre and spread   28  ( -1.958610, -1.958609,  0.013428 )     1.88955398
  WF centre and spread   29  ( -1.972181, -1.972181, -0.017051 )     4.62569908
  WF centre and spread   30  ( -1.988898, -1.972181, -0.000182 )     4.62569074
  WF centre and spread   31  ( -1.972181, -1.988898, -0.000182 )     4.62569071
  WF centre and spread   32  ( -1.971639, -1.971639,  0.001623 )     0.77959215
  WF centre and spread   33  ( -1.971999, -1.971995,  0.000001 )     0.76845337
  WF centre and spread   34  ( -1.971995, -1.971999,  0.000001 )     0.76845337
  WF centre and spread   35  ( -1.970838, -1.970837,  0.000001 )     0.77959013
  WF centre and spread   36  ( -1.971999, -1.971999,  0.000005 )     0.76845329
  Sum of centres and spreads (-35.505356,-35.505356,-35.505429 )    78.52470740
 
    100    -0.588E-03     0.0193636736       78.5247073976      23.50  <-- CONV
        O_D=      0.0001700 O_OD=     29.6058997 O_TOT=     78.5247074 <-- SPRD
 Delta: O_D=  0.6445596E-05 O_OD= -0.5940060E-03 O_TOT= -0.5875604E-03 <-- DLTA
 ------------------------------------------------------------------------------

 Writing checkpoint file wannier90.chk... done

 Final State
  WF centre and spread    1  (  0.013390,  0.013390,  0.013428 )     1.88955397
  WF centre and spread    2  ( -0.000181, -0.000181, -0.017051 )     4.62569909
  WF centre and spread    3  ( -0.016897, -0.000181, -0.000182 )     4.62569080
  WF centre and spread    4  ( -0.000181, -0.016897, -0.000182 )     4.62569076
  WF centre and spread    5  (  0.000361,  0.000361,  0.001623 )     0.77959215
  WF centre and spread    6  (  0.000001,  0.000005,  0.000001 )     0.76845337
  WF centre and spread    7  (  0.000005,  0.000001,  0.000001 )     0.76845337
  WF centre and spread    8  (  0.001162,  0.001162,  0.000001 )     0.77959013
  WF centre and spread    9  (  0.000001,  0.000001,  0.000005 )     0.76845329
  WF centre and spread   10  (  0.013390, -1.958609, -1.958571 )     1.88955398
  WF centre and spread   11  ( -0.000181, -1.972181, -1.989051 )     4.62569904
  WF centre and spread   12  ( -0.016897, -1.972181, -1.972182 )     4.62569079
  WF centre and spread   13  ( -0.000181, -1.988898, -1.972182 )     4.62569071
  WF centre and spread   14  (  0.000361, -1.971639, -1.970377 )     0.77959216
  WF centre and spread   15  (  0.000001, -1.971995, -1.971999 )     0.76845337
  WF centre and spread   16  (  0.000005, -1.971999, -1.971999 )     0.76845337
  WF centre and spread   17  (  0.001162, -1.970837, -1.971999 )     0.77959013
  WF centre and spread   18  (  0.000001, -1.971999, -1.971995 )     0.76845329
  WF centre and spread   19  ( -1.958610,  0.013390, -1.958571 )     1.88955398
  WF centre and spread   20  ( -1.972181, -0.000181, -1.989051 )     4.62569904
  WF centre and spread   21  ( -1.988898, -0.000181, -1.972182 )     4.62569074
  WF centre and spread   22  ( -1.972181, -0.016897, -1.972182 )     4.62569076
  WF centre and spread   23  ( -1.971639,  0.000361, -1.970377 )     0.77959216
  WF centre and spread   24  ( -1.971999,  0.000005, -1.971999 )     0.76845337
  WF centre and spread   25  ( -1.971995,  0.000001, -1.971999 )     0.76845337
  WF centre and spread   26  ( -1.970838,  0.001162, -1.971999 )     0.77959013
  WF centre and spread   27  ( -1.971999,  0.000001, -1.971995 )     0.76845329
  WF centre and spread   28  ( -1.958610, -1.958609,  0.013428 )     1.88955398
  WF centre and spread   29  ( -1.972181, -1.972181, -0.017051 )     4.62569908
  WF centre and spread   30  ( -1.988898, -1.972181, -0.000182 )     4.62569074
  WF centre and spread   31  ( -1.972181, -1.988898, -0.000182 )     4.62569071
  WF centre and spread   32  ( -1.971639, -1.971639,  0.001623 )     0.77959215
  WF centre and spread   33  ( -1.971999, -1.971995,  0.000001 )     0.76845337
  WF centre and spread   34  ( -1.971995, -1.971999,  0.000001 )     0.76845337
  WF centre and spread   35  ( -1.970838, -1.970837,  0.000001 )     0.77959013
  WF centre and spread   36  ( -1.971999, -1.971999,  0.000005 )     0.76845329
  Sum of centres and spreads (-35.505356,-35.505356,-35.505429 )    78.52470740
 
         Spreads (Ang^2)       Omega I      =    48.918637665
        ================       Omega D      =     0.000170004
                               Omega OD     =    29.605899729
    Final Spread (Ang^2)       Omega Total  =    78.524707398
 ------------------------------------------------------------------------------
 Time for wannierise            6.963 (sec)

 Writing checkpoint file wannier90.chk... done

 *---------------------------------------------------------------------------*
 |                               PLOTTING                                    |
 *---------------------------------------------------------------------------*
 
 Time for plotting             21.796 (sec)
 Total Execution Time         124.174 (sec)

 *===========================================================================*
 |                             TIMING INFORMATION                            |
 *===========================================================================*
 |    Tag                                                Ncalls      Time (s)|
 |---------------------------------------------------------------------------|
 |kmesh: get                                        :         1         0.143|
 |overlap: allocate                                 :         1         0.004|
 |overlap: read                                     :         1        78.123|
 |dis: main                                         :         1        17.008|
 |wann: main                                        :         1         6.963|
 |plot: main                                        :         1        21.796|
 *---------------------------------------------------------------------------*
 
 All done: wannier90 exiting
